LAMMPS data file via write_data, version 29 Oct 2020, timestep = 3384000

3504 atoms
11 atom types
1452 bonds
2 bond types
308 angles
1 angle types

-0.5217691347890039 32.86176913478256 xlo xhi
-2.906278943545603 27.87212894354198 ylo yhi
-3.882264126756983 39.84726512676673 zlo zhi
13.204329432210345 0.0 0.0 xy xz yz

Masses

1 40.078
2 40.078
3 1.0078
4 1.0078
5 1.0078
6 15.9996
7 15.9996
8 15.9996
9 15.9996
10 8
11 28.0855

Pair Coeffs # lj/cut/coul/long

1 5.0298e-06 5.5667
2 5.0298e-06 2.87199
3 0 0
4 0.1554 3.1655
5 0.1554 3.1655
6 0.1554 3.1655
7 1.8405e-06 3.302
8 0 0
9 0 0
10 0.1554 3.1655
11 0.1554 3.1655

Bond Coeffs # harmonic

1 554.135 1
2 554.135 1

Angle Coeffs # harmonic

1 45.7696 109.47

Atoms # full

2360 3 10 -0.95 15.089431716184777 0.6766330440103299 15.699481293380003 0 0 0
433 1 8 0.425 9.98651820635363 7.0378143840500496 -2.067737880675584 0 0 1
5 1 7 2.1 10.578031033364702 4.893094937230974 -0.7434941148190117 0 0 0
825 1 9 0.41 5.145678792164655 3.3543838133793056 4.193680774426824 0 0 0
3245 4 8 0.425 16.85523768886112 4.028996418847985 -3.2052402760762995 0 1 0
12 1 4 -1.05 10.757715370557207 3.5468210406120484 -1.6571399607377653 0 0 0
13 1 5 -1.1808 9.325142288182018 4.761887484657449 0.1359832376116632 0 0 0
44 1 1 1.36 8.359120923702442 3.164542874360402 1.6033447819308142 0 0 0
55 1 5 -1.1808 7.159073420200769 1.4590058209649879 2.6687409334165437 0 0 0
56 1 5 -1.1808 7.532332947437965 0.40429684188999904 0.37991081879083843 0 0 0
186 1 6 -0.95 6.992497503774112 11.039966037025552 10.386737061804679 0 0 0
1733 2 9 0.41 12.662708600803889 8.001608535462006 8.081119209280065 0 0 0
59 1 7 2.1 11.049965873752514 0.5625248267080645 0.5701720686477394 0 0 0
60 1 7 2.1 11.74491739000051 2.3079080642109364 -1.883457348149819 0 0 0
61 1 7 2.1 14.622406583118396 6.608067358199342 3.7456248919362176 0 0 0
62 1 4 -1.05 11.683999500567836 1.2654600960589537 -0.7284891113962506 0 0 0
3061 4 8 0.425 8.021117454985694 -0.07915968593677514 -3.6497963782703366 1 1 1
64 1 5 -1.1808 12.041707357169612 0.4307578645896899 1.7419425316913832 0 0 0
65 1 5 -1.1808 10.470273298626157 -0.8023626628268032 0.17188308994895163 0 0 0
67 1 6 -0.95 13.235036050439085 2.9220720133312046 -2.0021764085179194 0 0 0
1957 3 1 1.36 12.02284581835671 -1.585270204723198 6.788210455339524 0 1 0
69 1 5 -1.1808 13.137741736332398 6.775461481067255 3.2167850255591333 0 0 0
94 1 6 -0.95 11.479699767719502 1.5931123775345775 -3.25530820364282 0 0 0
99 1 1 1.36 12.260459169875766 7.157289431681823 1.0072827538503608 0 0 0
3453 4 9 0.41 10.77726551098582 0.6092958633323873 13.47028790630607 0 1 0
109 1 5 -1.1808 11.785405236192219 0.6122976786190613 6.051328675152526 0 0 0
110 1 5 -1.1808 11.366584497378025 2.9646069897891625 5.146447160400379 0 0 0
124 1 5 -1.1808 11.882398571358369 5.021975151300593 0.07878268874998451 0 0 0
642 1 10 -0.95 5.7276898554731925 8.533105356775135 0.23100277297714644 0 0 1
177 1 5 -1.1808 14.778839920133267 7.189591286990751 5.162321642636053 0 0 0
225 1 3 0.425 13.970292099909507 3.6054758429216713 -1.6309123963549732 0 0 0
2230 3 10 -0.95 13.706434168131459 5.687680013271187 -3.7221028311890474 0 0 0
1228 2 10 -0.95 10.227260913346564 7.430446507892578 5.983833009802064 0 0 0
416 1 10 -0.95 6.885787744516444 8.64003602024521 -2.095245178847489 0 0 1
2463 3 9 0.41 4.050625956384234 2.7459890492063135 17.77086076495313 0 1 0
2009 3 2 2.0 8.46371366426841 0.052575904344307034 10.142421567890198 0 1 0
3038 4 10 -0.95 16.121414062952326 0.9064946872540158 -1.8831635042530546 0 1 0
924 2 4 -1.05 8.556239961180058 1.2713637419174022 9.14709254744515 0 0 0
1620 2 9 0.41 19.400019349631396 7.821954205207181 7.340820968775969 0 0 0
2462 3 9 0.41 2.7052773087287765 3.404219764716088 17.120106096481294 0 1 0
2497 3 11 -0.82 7.083095564164745 3.188042250604976 16.782605072569975 0 1 0
175 1 4 -1.05 20.21875015616854 11.36620792736452 -0.926181091190339 0 0 0
454 1 10 -0.95 8.550989938335515 0.6741982605318597 -2.393606859724789 0 0 0
209 1 6 -0.95 10.571756069528412 10.31490809661465 7.876821125886382 0 0 0
464 1 10 -0.95 9.777758898438346 1.3750667121643962 1.0327386081450785 0 0 0
465 1 8 0.425 8.880412082139923 0.8690353601282843 0.780625409275955 0 0 0
2334 3 10 -0.95 6.358448033912769 -2.8560934888606253 -3.8695524656443028 0 1 1
3504 4 9 0.41 2.7874063828312012 -1.5346712171409416 12.0401382286577 0 1 0
508 1 10 -0.95 6.940724567483822 4.68351853865976 4.765693813786962 0 0 0
580 1 10 -0.95 7.020582196523485 3.364892332444523 -0.3649472786994501 0 0 1
161 1 4 -1.05 9.090783483749952 12.442626303579823 7.671866224903329 0 0 0
2917 4 2 2.0 17.922695099019187 9.522824226562452 11.01297179965763 0 1 0
733 1 11 -0.82 15.050716357518727 7.073333832034809 8.123720645784523 -1 1 0
1730 2 9 0.41 18.056773646903334 4.386868662146332 2.857074969845674 0 0 1
993 2 4 -1.05 20.08704295917149 8.058060397048045 3.197337739016377 0 0 0
1737 2 9 0.41 8.761600265854543 0.5910981524921151 5.288168213055743 0 0 0
2142 3 10 -0.95 4.724077674686 -0.2547039802265867 13.75447438608795 0 0 0
212 1 6 -0.95 10.57418652649817 11.627570467839687 5.627617966778505 0 0 0
428 1 10 -0.95 6.372617895079124 8.745556473827314 7.270050928446558 0 0 0
54 1 4 -1.05 7.262223349715933 -1.1191202976460586 2.433795205998096 0 0 0
226 1 3 0.425 6.492033793491789 1.027746472849015 4.459391687923786 0 0 0
3349 4 11 -0.82 8.259917317444552 3.2060110652021088 14.054937619379434 0 0 0
3360 4 9 0.41 9.32563068287292 3.716456666002424 11.115850345267594 1 0 0
2178 3 10 -0.95 12.319090933209088 -1.0625262667191637 -3.3845512407221188 0 1 0
394 1 10 -0.95 17.252300389909017 3.806568121714699 16.415027596659954 0 0 0
643 1 8 0.425 4.820280881774281 8.57284227578742 0.6788848048161187 0 0 1
1734 2 9 0.41 13.412494143379075 8.827252442841209 9.273950326870835 0 0 0
176 1 5 -1.1808 18.618637827955034 11.85340930559148 0.9483436807588932 0 0 0
2361 3 8 0.425 15.905831607869949 0.13997008489249474 16.08049591348761 0 0 0
391 1 8 0.425 16.43066038315918 5.097832998259493 10.488948669450707 0 0 0
2487 3 9 0.41 20.547879368772577 7.365154671609197 9.981334758690194 -1 1 0
2534 3 9 0.41 14.871522532924438 7.325731215715457 12.531352896461726 0 0 0
743 1 9 0.41 10.791994183192976 9.140071708782608 3.434409863103957 0 0 0
887 2 6 -0.95 14.191961516938123 2.754151202202226 3.1471270706969863 0 0 0
455 1 8 0.425 9.514654249981772 0.8849041006571579 -2.6142684066512585 0 0 0
2931 4 8 0.425 9.680589923942291 -1.9643157420031514 11.47203087221944 0 1 0
3056 4 10 -0.95 15.562090676392884 -1.8334682790074408 10.325415033368268 0 1 0
1094 2 3 0.425 6.9826888285758155 1.6907910741703045 6.495473093332313 0 0 0
1726 2 11 -0.82 10.740140070891858 2.6509113625488654 16.84527552614375 0 0 0
638 1 10 -0.95 4.300340624974356 0.6553730753929754 7.1016657350063355 0 0 0
52 1 6 -0.95 15.732517038875766 3.59363770709105 14.192286265448605 0 0 0
355 1 8 0.425 10.758172698033595 -0.017806242279486018 11.006627083855264 0 0 0
3207 4 8 0.425 13.92081997195261 1.6829515458752695 -3.7132184366662497 0 1 0
879 2 7 2.1 17.656288062644826 1.9303337000301628 2.8691307624540228 0 0 0
1371 2 8 0.425 17.2575917755131 5.744834411218502 -2.391356505851745 0 0 0
1766 3 5 -1.1808 14.589837760651879 11.99046032790009 0.9620034103117518 0 0 0
3345 4 9 0.41 19.95887202975884 6.71921419982845 -2.9396916505465502 0 1 1
1229 2 8 0.425 9.287384339059315 7.606777143478695 5.635483197805952 0 0 0
2076 3 10 -0.95 12.226476953154576 7.142172016337678 15.513132042638947 0 1 0
772 1 11 -0.82 15.544914687093772 10.060937082674709 3.8783439542791553 0 0 1
380 1 10 -0.95 5.66429910370975 -1.5914361733544 6.7015005827644565 0 0 0
2924 4 10 -0.95 17.026928509773317 10.224933669762873 9.91069048452884 0 1 0
63 1 4 -1.05 13.523475067708493 -2.0633386820901647 -1.464270003091504 0 0 0
849 1 9 0.41 9.894431150366156 9.266741590394975 0.16966520502785354 0 0 0
1306 2 10 -0.95 12.6899822182533 2.6803995322712426 7.347370120510837 0 0 0
2459 3 9 0.41 9.685670769907293 6.844930412298023 2.84047078585742 0 0 0
1870 3 5 -1.1808 3.499762634709116 -1.4656092552513142 -0.24100996618075365 0 1 0
688 1 11 -0.82 6.788467157613024 11.202631440837074 -3.4112761843712094 0 0 0
254 1 2 2.0 12.859533377583043 -1.6528919310510635 15.854664744962214 0 0 0
3421 4 11 -0.82 16.50699228054947 0.586818987567546 12.984241523975964 0 1 0
2221 3 8 0.425 10.39650895018017 6.489275868534065 12.662529891650372 0 1 0
1150 2 2 2.0 4.002994921729728 4.384417310361315 7.565499377959872 1 0 0
2021 3 2 2.0 4.825610968930693 1.2735315358581332 13.638394429135282 0 0 0
419 1 8 0.425 7.494551383039848 -0.7680036432900166 13.542382345568566 0 0 0
3358 4 11 -0.82 10.219980679915608 3.4067022516140506 11.438685383350544 1 0 0
880 2 7 2.1 15.315307320563392 3.572756844323309 4.000918398827521 0 0 0
3062 4 10 -0.95 11.81714919648137 0.8975289512247722 11.977509183857185 0 1 0
2586 3 9 0.41 13.613258981084554 8.380054985926792 -1.4645596346765704 0 0 0
3244 4 10 -0.95 16.606642320323946 3.036011514756037 -3.2275704607496056 0 1 0
47 1 7 2.1 6.843906998799468 0.25871010881663015 1.7809058793666042 0 0 0
49 1 4 -1.05 5.246469615441128 6.228310273285167 3.5577774152440664 0 0 0
199 1 6 -0.95 15.833270176198724 8.711945286235904 -1.9472464816785937 0 0 0
857 1 9 0.41 7.957318033876367 12.189962795483684 1.6696654322342264 0 0 0
362 1 10 -0.95 11.578708415544218 -2.4307801409837766 15.633947067714317 0 0 0
102 1 7 2.1 11.498119642484696 2.108123635612719 6.435112704865821 0 0 0
104 1 6 -0.95 11.668086786390163 3.796996459535877 2.702928285377869 0 0 0
2518 3 11 -0.82 3.959922298107358 -2.6501773171157548 3.1175352203207876 0 1 0
108 1 4 -1.05 10.163451140727549 2.231393711751413 7.301558114978539 0 0 0
2277 3 8 0.425 12.287506015676927 2.4394267546260915 16.222983620625346 0 0 0
167 1 7 2.1 16.217117860941904 10.209209113399975 -2.17823556292321 0 0 0
882 2 4 -1.05 16.641237353426046 2.9525255628037055 3.5906354907182445 0 0 0
243 1 3 0.425 11.953554991689543 4.208705523453447 1.7963799307959203 0 0 0
735 1 9 0.41 15.019310910224723 6.497493079837328 8.940698798500954 -1 1 0
251 1 2 2.0 6.705924223281663 5.905317859012365 3.770121588035191 0 0 0
432 1 10 -0.95 10.371193521402443 6.186632712208441 -1.7444874533270025 0 0 1
260 1 2 2.0 10.990870095492816 3.993980554616189 4.111953920632859 0 0 0
472 1 10 -0.95 8.55120780599735 10.222765682636643 6.374138002819214 0 0 0
2803 4 4 -1.05 2.1944989133851136 -0.37504365215431745 -2.03254661923982 1 1 0
269 1 2 2.0 14.037759165767097 4.59935294696627 10.309684096646857 0 0 0
283 1 2 2.0 5.012152975226639 -0.22545895103658076 6.08687943690804 0 0 0
385 1 8 0.425 13.915082716683557 2.1278536384910787 10.00857394924912 0 0 0
2169 3 8 0.425 3.958510934909077 1.293520472733837 -2.889939931677076 0 1 1
885 2 4 -1.05 16.752234509400456 0.8662187239328589 2.2164037640621554 0 0 0
2338 3 10 -0.95 13.163268370151291 5.108908439978229 14.341940918924987 0 1 0
3036 4 10 -0.95 3.5535061316143786 5.4010915008448475 8.598617573644868 1 0 0
1263 2 8 0.425 12.055421593116096 6.0310052622936805 4.0471719652159965 0 0 0
3307 4 11 -0.82 9.709331267986391 -2.154127597859904 -3.007996038272035 0 1 0
3422 4 9 0.41 15.824757116722438 0.7509096643668909 12.27173776449553 0 1 0
639 1 8 0.425 3.9713347280034395 1.502226333021433 7.556088897898606 0 0 0
1197 2 8 0.425 9.386675599777579 9.29201200861849 8.895254062632661 0 0 0
1350 2 10 -0.95 19.337859575687013 7.653797296666935 0.18931459554191754 0 0 0
456 1 10 -0.95 4.101274415889838 -0.6580181528981299 4.888340442823738 0 0 0
390 1 10 -0.95 15.424595735494272 5.3014193628243085 10.323101915600628 0 0 0
3157 4 8 0.425 14.047705703008932 -1.3782176125148013 7.669814912403517 0 1 0
3201 4 8 0.425 12.193956413784655 -2.681019751348069 11.166431815028702 0 1 0
437 1 8 0.425 8.018403327735614 10.47663448863666 0.44351250711937773 0 0 1
2498 3 9 0.41 7.3197663846046614 3.053804169999638 15.820316531255681 0 1 0
1920 3 7 2.1 14.294506569059159 -2.0919773125432903 0.005042579767628119 0 1 0
1202 2 10 -0.95 8.893871096758986 7.234064406198177 11.722851389343075 0 0 0
2063 3 8 0.425 12.436912772729794 11.211619980866114 7.882687899175004 0 0 0
1222 2 10 -0.95 10.90050178770237 5.396221159264439 7.318127348069474 0 0 0
213 1 4 -1.05 19.6825445866964 10.741624371656298 6.0311781414320915 0 0 0
273 1 2 2.0 7.097246425761243 8.492508851854504 -0.5222311217222941 0 0 1
381 1 8 0.425 6.169495863147466 -2.310170856790153 7.3115655295782975 0 0 0
2781 4 7 2.1 15.736769154757202 -2.604764675015813 6.169184064466284 0 1 0
2091 3 8 0.425 15.155677056734337 6.5536361848104665 16.79930828459813 -1 1 0
509 1 8 0.425 6.737889417286684 4.037662124520404 5.575278471603086 0 0 0
1036 2 6 -0.95 22.111754245773852 11.043678431898337 6.930816647429399 0 0 0
2804 4 5 -1.1808 4.4689120810251985 0.5094828379420866 -1.5066159897227562 1 1 0
309 1 8 0.425 11.690102099460702 0.25378897888119667 15.152748862692988 0 0 0
1573 2 11 -0.82 15.64341925763329 8.114021749778203 15.437349847261284 0 0 0
2339 3 8 0.425 13.970548633741746 4.425565808083762 14.331489308540096 0 1 0
606 1 10 -0.95 2.138841090640007 0.422801022007977 3.361056373531885 0 0 1
543 1 8 0.425 4.564710770891943 -0.42096703201993657 1.0329978423378376 0 0 0
3302 4 9 0.41 5.789673062502956 -1.6983256019705528 8.992173166845538 1 0 0
3424 4 11 -0.82 9.716992198076944 8.655608627435168 14.070606975122352 0 1 0
255 1 2 2.0 7.22916510519342 4.002826870376768 -3.627711421626713 0 0 0
3220 4 10 -0.95 17.051969005828624 9.26695839691312 12.241019928609873 0 1 0
2 1 1 1.36 8.430499780855632 -1.2998544085656627 -0.9794667957787087 0 0 0
346 1 10 -0.95 2.5044262229763925 -2.289724780075577 8.817465987806463 0 0 0
248 1 3 0.425 11.148035593495418 9.663337360775513 8.42908569831912 0 0 0
205 1 1 1.36 20.167788073944322 12.456127086699881 3.1013892508861165 0 0 0
823 1 11 -0.82 4.267080036239312 2.8982822943637547 4.052019888496923 0 0 0
3485 4 9 0.41 8.912517273818056 -1.5112301685440834 7.790212558927578 0 1 0
1866 3 7 2.1 1.7141815939881302 -1.7258037930794476 -2.782140495688858 0 1 0
2153 3 8 0.425 10.977470360291473 5.323006577805899 -3.568471932456241 0 0 1
71 1 1 1.36 6.613104959619626 1.4138588825081557 -1.5491946841828503 0 0 1
716 1 9 0.41 5.193945865658859 -1.5129873751223115 -0.9126693930669632 0 0 1
3037 4 8 0.425 3.540217085447522 6.21115765672751 9.206077776365952 1 0 0
515 1 8 0.425 6.795349483317114 6.386402426684187 8.944724503534644 0 0 0
826 1 11 -0.82 15.961635832422392 10.550777103284192 -3.7639940530284095 0 0 0
2787 4 5 -1.1808 14.244174342612355 -2.2817260358667433 6.255672924440123 0 1 0
744 1 9 0.41 12.222589860191892 8.353577289253382 3.4735868241414316 0 0 0
774 1 9 0.41 16.316138244787332 10.160125929308958 4.507158690986444 0 0 1
900 2 6 -0.95 7.581371623540107 2.4235223875276777 7.03095466732649 0 0 0
922 2 7 2.1 8.771126032690127 2.441406825116318 8.131692871111678 0 0 0
107 1 6 -0.95 7.413939684837279 -2.4142709451290774 4.570402826473892 0 0 0
222 1 3 0.425 15.287427895733243 2.7120703455672155 13.78217951828319 0 0 0
1575 2 9 0.41 15.320073692509848 8.623614663709324 16.234717318274207 0 0 0
3063 4 8 0.425 11.115700483951395 1.6325778383994498 11.740295372034025 0 1 0
2137 3 8 0.425 4.214490897122629 2.6163271693235144 15.727027003394323 0 0 0
1203 2 8 0.425 8.71417374541584 7.674399888065203 12.655887340986588 0 0 0
528 1 10 -0.95 4.375871905487022 8.1452443950279 8.75381155491796 0 0 0
715 1 11 -0.82 6.051282314336395 -1.8710628927903519 -1.2825184347830088 0 0 1
778 1 11 -0.82 17.903454562578307 7.504364726850591 4.381245220322031 0 0 0
2585 3 9 0.41 12.490756284716 7.494043240253992 -2.2530285181639833 0 0 0
641 1 8 0.425 4.064533868976999 6.454301311241602 5.763887577519219 0 0 0
1223 2 8 0.425 10.325884881692913 4.715732805608757 7.79209973414355 0 0 0
436 1 10 -0.95 8.166618655186767 9.596198909845642 -0.031253866916792994 0 0 1
3053 4 8 0.425 6.9528369234732015 2.3702075169916768 13.121093598844137 0 0 0
514 1 10 -0.95 7.71475521516771 6.469991407361826 9.476693694103881 0 0 0
1096 2 3 0.425 14.363266638646568 3.026945331528423 6.286982713887209 0 0 0
403 1 8 0.425 19.63722729494185 10.614103775757057 9.51706473593681 0 0 0
2281 3 8 0.425 0.7298021508575507 -1.5883426677880332 4.31700256208023 0 1 0
1736 2 9 0.41 8.348842198500297 1.0756750376177782 3.7843303504678225 0 0 0
174 1 6 -0.95 17.74597334202617 10.477215930338843 -2.0068010209859053 0 0 0
396 1 10 -0.95 16.69376293947005 4.611690933913952 0.586923021089178 0 0 1
2363 3 8 0.425 6.788000151248293 0.8281652753030619 11.75301493161605 0 1 0
789 1 9 0.41 6.5393988269480925 -0.027928676184388213 17.72302384531963 0 0 0
429 1 8 0.425 7.375585655113544 8.56483878151455 7.289714518480476 0 0 0
3426 4 9 0.41 9.931135812294485 8.786167883620516 15.03866119319646 0 1 0
2036 3 2 2.0 11.845225948780897 5.844349156968779 14.739889479744171 0 1 0
858 1 9 0.41 6.470353947624103 12.32465590332912 2.3311092092280274 0 0 0
1630 2 11 -0.82 17.013234458625686 4.970771952843858 7.021596301584756 0 0 0
70 1 5 -1.1808 15.024476882849575 -0.7937322103135656 0.2434541381418578 0 0 0
164 1 1 1.36 16.46263174783944 8.070196230040546 6.473733815882461 0 0 0
914 2 6 -0.95 14.945288306385873 3.276273603400175 5.541376550569863 0 0 0
166 1 7 2.1 15.506010191827098 8.155516836434144 1.4171541064260476 0 0 0
397 1 8 0.425 17.331863090913714 3.987833456723286 1.0595335618579096 0 0 1
2231 3 8 0.425 14.416794697918565 5.656641493180873 -2.937575117600544 0 0 0
169 1 4 -1.05 14.071379176441688 8.813498847342986 1.0656849523095229 0 0 0
170 1 4 -1.05 15.718328401085827 6.946912371188333 0.34753541914392105 0 0 0
171 1 5 -1.1808 16.577592232032615 9.263350875077379 1.417272919700431 0 0 0
172 1 5 -1.1808 15.51537734371654 7.436091186652833 2.770489431525875 0 0 0
1506 2 10 -0.95 3.3400847341223874 4.601756359943763 6.22473392467885 1 0 0
661 1 11 -0.82 2.0410211569253955 1.5092648588538538 5.781055644181434 0 0 0
628 1 10 -0.95 22.451780333078553 12.36572526005678 3.863164451683158 0 0 0
2114 3 10 -0.95 16.947044025814147 5.7921318093111385 14.73310935992652 0 0 0
204 1 1 1.36 16.534918655752943 11.444855068692911 2.2351069819619047 0 0 0
1370 2 10 -0.95 16.56110967648464 5.67577360411585 -1.6591204543041251 0 0 0
1158 2 2 2.0 1.8711687941433874 2.016026040136202 12.421602623251783 1 0 0
214 1 5 -1.1808 17.17524205990645 10.191534974941554 5.817571848073637 0 0 0
122 1 4 -1.05 15.29527649184773 11.171590406268992 -1.3934734644176396 0 0 0
249 1 2 2.0 7.774629203008033 -1.3996645012470967 15.86850656272815 0 0 0
165 1 1 1.36 18.868699450518747 9.547036067290463 1.6269191064135882 0 0 0
288 1 2 2.0 15.842975145320601 5.553859720734584 -0.2597241253025264 0 0 0
115 1 7 2.1 14.361613028433473 12.251019091033772 -0.5669491116519492 0 0 0
1619 2 9 0.41 18.51571045484591 7.610111176902725 8.69722526208517 0 0 0
1351 2 8 0.425 18.851248003534483 6.961135693109679 -0.34193546673095376 0 0 0
402 1 10 -0.95 19.942803175109837 10.566746207451404 8.542979581262346 0 0 0
2179 3 8 0.425 11.773950547946303 -0.2152470569702456 -3.5170438493432443 0 1 0
2458 3 11 -0.82 10.21587399074392 6.625834870055394 2.021377467505028 0 0 0
734 1 9 0.41 14.361319053338285 6.761871077711556 7.4696912229549195 -1 1 0
525 1 8 0.425 14.396421328107976 -2.4319352062568904 13.946312106923248 0 0 0
3308 4 9 0.41 10.591592468367532 -1.722541899890032 -2.819897298977306 0 1 0
365 1 8 0.425 11.059522111621135 5.742565275359697 9.489194030997139 0 0 0
1725 2 9 0.41 17.865578903501568 6.167748400248858 12.251499338061041 0 0 0
2060 3 10 -0.95 13.760304667537936 1.5515317843169543 13.701229462523372 0 0 0
1176 2 10 -0.95 3.2496578912009735 -1.2827833662713581 16.300456922073852 1 0 0
2796 4 7 2.1 3.242325916563671 -0.005313721849988351 -0.7982492805585024 1 1 0
444 1 10 -0.95 7.070098676905888 5.494084538551313 -3.1161295057849885 0 0 0
770 1 9 0.41 10.252924926352577 12.076441221628542 -3.4983720805142218 0 0 1
418 1 10 -0.95 7.876597338011587 -0.7729930483507745 14.499823970563593 0 0 0
581 1 8 0.425 7.291693667687708 4.320660282357474 -0.5786864483348433 0 0 1
1731 2 9 0.41 18.581829581095338 5.484874674485928 3.9458409498809015 0 0 1
2165 3 8 0.425 10.83910539333255 3.977422615967111 16.028724556272905 0 1 0
2362 3 10 -0.95 7.463119262032967 0.2685633646954333 11.228180292467691 0 1 0
1729 2 11 -0.82 18.839117379218283 4.936473411495541 3.1501706539739276 0 0 1
3223 4 8 0.425 18.3772944548229 7.166178356638033 10.641975964378656 0 1 0
457 1 8 0.425 3.4028738315126352 -0.23845401878285033 4.261359444497408 0 0 0
1904 3 1 1.36 3.441092436681635 1.9723561426195415 2.0971637224702597 0 1 0
3351 4 9 0.41 8.903134467121072 2.486458911973214 13.793119794672315 0 0 0
608 1 10 -0.95 13.399613047972133 -1.7036938756018158 17.298357590335865 0 0 0
2389 3 8 0.425 7.614308592421413 -2.077992517749628 8.755832579754788 0 1 0
2535 3 9 0.41 13.32410514685346 7.827605153334876 12.673951217056807 0 0 0
1898 3 6 -0.95 0.12103285713682321 -1.7025165374998568 -3.1213279371639557 0 1 0
2908 4 2 2.0 16.193018593177882 1.5468691094128468 -3.2890841501880907 0 1 0
1618 2 11 -0.82 18.500648157598395 7.569972256448482 7.698128584999443 0 0 0
3227 4 8 0.425 20.69116829354062 12.128915791284772 8.63565394099715 0 0 0
2061 3 8 0.425 13.38121114383946 1.6278205301715651 12.755567649984293 0 0 0
2208 3 10 -0.95 1.3584068295740213 1.096766859235923 16.29183608791905 0 0 0
1496 2 10 -0.95 12.725312478297367 6.943484160700045 6.42303366886842 0 0 0
3359 4 9 0.41 10.803103560534616 4.199437807955035 11.616365489401796 1 0 0
2381 3 8 0.425 13.975603825083995 -0.8227541829290184 4.988461984809497 0 1 0
780 1 9 0.41 18.730181189367396 7.865604422282196 3.949897166687327 0 0 0
2285 3 8 0.425 16.258318152871457 11.239393727990393 6.930939056890713 0 0 0
737 1 9 0.41 4.55857682132445 4.652076557681177 1.030671539930915 0 0 1
1030 2 7 2.1 20.679479266674072 10.215806201707727 7.167037947356404 0 0 0
1411 2 8 0.425 4.030627022074156 1.506826719877111 11.556245501243389 1 0 0
1410 2 10 -0.95 3.5224826814344787 1.6747439575944476 12.461150535356595 1 0 0
347 1 8 0.425 3.139931125309914 -2.0035536450737537 9.531470723159376 0 0 0
1928 3 5 -1.1808 13.260770219831668 -2.4960358360641712 1.061584069931933 0 1 0
1563 2 9 0.41 8.797496213823496 9.871556030546945 4.452624211892202 0 0 0
847 1 11 -0.82 10.893761914972295 9.302153885061797 0.18044335014329604 0 0 0
3200 4 10 -0.95 13.068749654679985 -2.397514334446819 10.81615123796153 0 1 0
742 1 11 -0.82 11.728010027940682 9.129797659409652 3.0825562592052878 0 0 0
2077 3 8 0.425 12.919837349464768 7.9141604223690045 15.76017933621533 0 1 0
2380 3 10 -0.95 13.781488936249435 -0.8601958025716625 3.9577920381294343 0 1 0
354 1 10 -0.95 9.844046725103867 -0.42598123251034226 10.73284404268739 0 0 0
215 1 5 -1.1808 18.447327324427285 10.9569583893525 3.7411245201174266 0 0 0
779 1 9 0.41 17.13052859893591 7.601879899423389 3.754261630330104 0 0 0
1179 2 8 0.425 13.420144377679083 5.025807659393638 12.678389750679411 0 0 0
1466 2 10 -0.95 3.324883355509755 2.9468777780970257 8.087502133480957 1 0 0
856 1 11 -0.82 7.2898642558569575 11.754445710705202 2.2737039235904746 0 0 0
3451 4 11 -0.82 10.281972196813522 0.5075632840669915 14.333055077294471 0 1 0
1537 2 11 -0.82 4.529219914873904 1.2480055424421694 9.96068351131922 0 1 0
1453 2 8 0.425 9.76203028814811 -0.8829974212205034 17.304594380526574 1 0 0
994 2 5 -1.1808 21.082748104780926 10.374038382028088 2.468114106662484 0 0 0
946 2 5 -1.1808 2.4801246557207053 0.7580566714475871 0.2047470684895023 1 0 0
736 1 11 -0.82 4.574952213931013 3.6717471048584978 0.833902165604063 0 0 1
2083 3 8 0.425 8.364097258013441 6.244411393006182 -0.24607409854961837 0 0 1
3269 4 8 0.425 12.966695576215825 0.390237455122616 11.193789749225623 0 1 0
524 1 10 -0.95 13.912727170790507 -2.1307389735630107 14.793440119784012 0 0 0
3039 4 8 0.425 15.527045030211298 0.4177362122972821 -1.179199552542363 0 1 0
308 1 10 -0.95 12.628349410166132 -0.043341308853289906 15.5172695245354 0 0 0
1178 2 10 -0.95 13.356305850866368 4.870620527508326 11.665687347202317 0 0 0
1301 2 8 0.425 12.500647127080242 5.324671117811862 8.418947257595558 0 0 0
2584 3 11 -0.82 13.015393984597843 7.5805731185440095 -1.4060928415938116 0 0 0
3156 4 10 -0.95 13.681343352064246 -1.2087885541613317 8.654080353074972 0 1 0
717 1 9 0.41 5.896818403114808 -2.2151590584416123 -2.208677657039766 0 0 1
929 2 6 -0.95 8.778153757376646 3.8425365121752213 8.754325124450265 0 0 0
58 1 1 1.36 14.372718704373842 0.4241920603316123 2.189046655005705 0 0 0
1190 2 10 -0.95 14.393601221522983 4.955898019308221 -0.4094673965663902 0 0 0
1191 2 8 0.425 13.35382045777008 4.948623526280616 -0.40039142404996 0 0 0
207 1 7 2.1 9.741415952727106 11.217563146377888 6.858479514035093 0 0 0
542 1 10 -0.95 5.202515965172244 0.2577868081418071 1.5312735182143307 0 0 0
1477 2 8 0.425 6.369588050373784 3.771653037792423 7.409100407145981 1 0 0
1162 2 2 2.0 8.965070370598262 7.098646690735896 10.154130761593422 0 0 0
479 1 8 0.425 12.225619746117744 10.934956598220136 -1.8289673390278853 0 0 0
239 1 3 0.425 18.709521506383382 10.896685159925278 -1.8882782357046848 0 0 0
1903 3 1 1.36 1.013319501135999 -0.9260816570635451 1.5343324197424772 0 1 0
473 1 8 0.425 7.534799932812142 10.217044898058798 6.442887627630606 0 0 0
926 2 5 -1.1808 16.533180649435703 -1.3618714882590828 6.709504338064045 0 0 0
443 1 8 0.425 9.543025215465441 3.3585142551443425 -2.843676548291021 0 0 1
265 1 2 2.0 13.344332706535127 -2.0699033204627533 -3.018235911912267 0 0 0
1385 2 8 0.425 18.595276275506563 4.549202465930974 7.172890706221656 0 0 0
824 1 9 0.41 3.604347174275084 3.236603507417188 4.720118748288462 0 0 0
1438 2 10 -0.95 17.75686394620744 0.8646537446885882 6.177026445060163 0 0 0
3350 4 9 0.41 8.759249986512247 4.05769495204883 14.214103000792246 0 0 0
787 1 11 -0.82 6.460255658308172 -0.39729172345218666 16.797097566161003 0 0 0
2415 3 9 0.41 14.118658528261896 11.086485090131603 4.265414834359808 0 0 0
663 1 9 0.41 2.7132781278762517 1.1941711209528574 6.450994952497128 0 0 0
208 1 7 2.1 18.356334148997696 11.03652195327846 5.29363265081648 0 0 0
2276 3 10 -0.95 13.292915049392118 2.42788189663073 15.943328657747728 0 0 0
2460 3 9 0.41 9.727715716452643 5.9396985905460635 1.481979023470899 0 0 0
2388 3 10 -0.95 7.967734580992776 -1.2111025105058357 9.233334043373514 0 1 0
1539 2 9 0.41 4.7082199616085205 0.4618525310819215 9.369113902339103 0 1 0
1093 2 3 0.425 13.230025240018914 3.0581343762189865 2.9363903137712724 0 0 0
1735 2 11 -0.82 9.079231917601476 0.6849459433611114 4.344592618969376 0 0 0
3052 4 10 -0.95 6.110489048775766 1.7757933016862202 12.940660277711903 0 0 0
2461 3 11 -0.82 3.692712780818982 3.5115544840727795 17.236220792765486 0 1 0
459 1 8 0.425 5.062838021876107 2.8930438531090026 -3.1112744907052803 0 0 0
123 1 5 -1.1808 12.869946136731237 11.907208236964559 -0.8279243996927605 0 0 0
68 1 4 -1.05 15.081196293145744 5.124309336272722 3.809637023743159 0 0 0
1022 2 6 -0.95 21.09454746217667 8.902763457594956 -1.326680531272638 0 0 0
1691 2 9 0.41 13.930106878096247 3.702567820989972 17.391694416723144 0 0 0
1307 2 8 0.425 13.339960371713639 2.833651373326835 8.177794765941627 0 0 0
364 1 10 -0.95 10.247819302589273 6.121848790754138 9.946111611881483 0 0 0
3301 4 11 -0.82 5.269861940179084 -1.6369293175798985 9.844264165269411 1 0 0
1099 2 3 0.425 8.38263015016112 4.822574567684192 8.968244624056014 0 0 0
458 1 10 -0.95 6.07397352295952 3.1009326134044155 -3.0516958529133156 0 0 0
2143 3 8 0.425 4.737445999736586 -1.2834813362751565 13.651921064197168 0 0 0
738 1 9 0.41 5.448721387909271 3.431175988511 0.41119050878354724 0 0 1
112 1 1 1.36 12.676732062375514 10.599783874229761 1.2717693670363923 0 0 0
788 1 9 0.41 5.670449636533416 0.012852218222764833 16.341004843957943 0 0 0
1562 2 9 0.41 8.253944084822008 10.398443363007146 3.0056780765617654 0 0 0
294 1 10 -0.95 18.273394544345855 3.6807765571608293 14.079384485928252 0 0 0
1497 2 8 0.425 13.65200605137979 7.0885417444060295 5.928660853331376 0 0 0
242 1 3 0.425 11.264569567411293 11.62167196931207 4.888326576557896 0 0 0
607 1 8 0.425 1.1783017632221064 0.7687470227458095 3.6725082280466577 0 0 1
2280 3 10 -0.95 0.4206477633175498 -2.0988270953488932 3.4964070654915087 0 1 0
1358 2 10 -0.95 9.38100045807995 11.839116249165189 10.91929633329479 0 0 0
2519 3 9 0.41 4.071699855787939 -1.9882083595551716 3.8587066263033067 0 1 0
1868 3 4 -1.05 2.0738242018411914 -2.8616181706837915 -1.7276813657187926 0 1 0
448 1 10 -0.95 9.476880192643927 4.054160188373106 3.935381376029648 0 0 0
449 1 8 0.425 8.497007162518067 4.058214827709182 4.3085707750139886 0 0 0
2082 3 10 -0.95 7.7913947418632326 7.102404448987784 -0.22787332032962926 0 0 1
2220 3 10 -0.95 11.089807655212718 6.380362035532459 13.40586919674644 0 1 0
57 1 1 1.36 11.38940927148805 -0.2706666179433066 3.8830377316460414 0 0 0
1359 2 8 0.425 10.329555043326863 11.468025999587036 10.926792914503901 0 0 0
490 1 10 -0.95 7.294114867551688 5.346429852990321 2.350874836510984 0 0 0
491 1 8 0.425 7.848976090362685 5.590539948233268 1.5080492386593916 0 0 0
1262 2 10 -0.95 11.44228755818101 5.459450708217627 4.679013840658728 0 0 0
3452 4 9 0.41 9.441087437240977 -0.01027349522770038 14.175606459749243 0 1 0
848 1 9 0.41 11.229761362582149 9.512390884731927 -0.7376726290987334 0 0 0
1476 2 10 -0.95 5.511521980459711 4.269551954224877 7.416406719684408 1 0 0
3268 4 10 -0.95 13.89729953589808 0.02307235584366385 10.853622285481823 0 1 0
422 1 10 -0.95 4.585352252095703 8.1434149050231 -3.1325081404978556 0 0 1
1135 2 2 2.0 11.34207168103561 6.325375222015017 6.163481441149198 0 0 0
2413 3 11 -0.82 13.358981636488707 11.678162673380745 4.535305243804338 0 0 0
689 1 9 0.41 7.147369193233766 11.946367355677427 -2.8472917927519505 0 0 0
80 1 6 -0.95 6.2068362869783265 0.713051292824896 5.357750379498176 0 0 0
2006 3 2 2.0 13.791516046772504 1.218907369690653 15.20317487581924 0 0 0