LAMMPS (24 Oct 2018)
  using 1 OpenMP thread(s) per MPI task
#LAMMPS Input file
# Title
clear
  using 1 OpenMP thread(s) per MPI task

# -----other settings -----
variable   fs   index 0.5 # 0.1 fs
variable   ps   index 100000 # 100  ps
variable   nfrequ index 100 # = Nevery * Nrepeat
variable   nstep equal ${ps}/${fs}
variable   nstep equal 100000/${fs}
variable   nstep equal 100000/0.5
variable   nstep2 equal ${ps}/(2*${fs})
variable   nstep2 equal 100000/(2*${fs})
variable   nstep2 equal 100000/(2*0.5)
variable   heatnpt equal 2000
variable   heatnvt equal ${heatnpt}*7
variable   heatnvt equal 2000*7
variable   tdamp equal ${fs}*100
variable   tdamp equal 0.5*100
variable   pdamp equal ${fs}*1000
variable   pdamp equal 0.5*1000
# ----- Structure settings -----
units      real
atom_style full
dimension  3
boundary   p p p
timestep   ${fs}
timestep   0.5

# ----- Potential settings -----
pair_style      lj/cut/coul/long 10.0 10.0
special_bonds   lj/coul 0.000000 1.00000 1.000000 angle yes dihedral no
pair_modify     mix arithmetic
bond_style      harmonic
angle_style     harmonic
box tilt large
#-----Read structure---------
read_data  58Ca_226Oh_77W_R.dat # read initial data
  triclinic box = (2.93 -0.002925 0.132973) to (16.4 12.4159 35.422) with tilt (5.32784 0 0)
  1 by 2 by 7 MPI processor grid
  reading atoms ...
  989 atoms
  scanning bonds ...
  2 = max bonds/atom
  scanning angles ...
  1 = max angles/atom
  reading bonds ...
  413 bonds
  reading angles ...
  77 angles
  2 = max # of 1-2 neighbors
  2 = max # of special neighbors
replicate  2 2 1
  triclinic box = (2.93 -0.002925 0.132973) to (29.87 24.8348 35.422) with tilt (10.6557 0 0)
  1 by 2 by 7 MPI processor grid
  3956 atoms
  1652 bonds
  308 angles
  2 = max # of 1-2 neighbors
  2 = max # of special neighbors
  Time spent = 0.00341821 secs
set type 1 charge  1.3600  #CAO
  128 settings made for charge
set type 2 charge  2.0  #Caw
  232 settings made for charge
set type 3 charge  0.4250  #Ho
  132 settings made for charge
set type 4 charge  -1.050  #Ob
  176 settings made for charge
set type 5 charge  -1.1808 #Obos
  244 settings made for charge
set type 6 charge  -0.9500  #Oh
  132 settings made for charge
set type 7 charge 2.100  #st
  180 settings made for charge
set type 8 charge  0.4250  #How
  904 settings made for charge
set type 9 charge  0.410  #Hw
  616 settings made for charge
set type 10 charge  -0.9500  #Ohw
  904 settings made for charge
set type 11 charge -0.8200  #Ow
  308 settings made for charge
group water type 9 11
924 atoms in group water
group oh type 8 10
1808 atoms in group oh
group caw type 2
232 atoms in group caw
kspace_style pppm 1e-4
neighbor 3.0 bin
neigh_modify every 1 delay 5 check yes
# ----- Output setting -----
thermo_style    custom step etotal temp lx vol press density
thermo          ${nfrequ}
thermo          100

# ----- Relax calculation (0 K) -----
print "----- Relax calculation (0 K) -----"
----- Relax calculation (0 K) -----
fix             f1 all box/relax iso 0.0
minimize        1.0e-10 1.0e-10 10000 1000000
WARNING: Using 'neigh_modify every 1 delay 0 check yes' setting during minimization (src/min.cpp:168)
PPPM initialization ...
WARNING: System is not charge neutral, net charge = -0.7352 (src/kspace.cpp:302)
  using 12-bit tables for long-range coulomb (src/kspace.cpp:321)
  G vector (1/distance) = 0.291585
  grid = 20 27 24
  stencil order = 5
  estimated absolute RMS force accuracy = 0.0244919
  estimated relative force accuracy = 7.37567e-05
  using double precision FFTs
  3d grid and FFT values/proc = 6534 1120
Neighbor list info ...
  update every 1 steps, delay 0 steps, check yes
  max neighbors/atom: 2000, page size: 100000
  master list distance cutoff = 13
  ghost atom cutoff = 13
  binsize = 6.5, bins = 6 4 6
  1 neighbor lists, perpetual/occasional/extra = 1 0 0
  (1) pair lj/cut/coul/long, perpetual
      attributes: half, newton on
      pair build: half/bin/newton/tri
      stencil: half/bin/3d/newton/tri
      bin: standard
Per MPI rank memory allocation (min/avg/max) = 8.979 | 9.361 | 9.741 Mbytes
Step TotEng Temp Lx Volume Press Density 
       0     12607145            0        26.94    23612.882 1.4843446e+08    3.2987156 
     100     11141617            0      27.2094    24328.376 1.274519e+08    3.2017009 
     200    9857335.9            0      27.4788    25058.179 1.0958986e+08    3.1084534 
     300    8730533.3            0      27.7482    25802.434     94359944    3.0187921 
     400    7740752.7            0      28.0176    26561.281     81353979    2.9325462 
     500    6870354.2            0       28.287    27334.863     70230070    2.8495546 
     600    6104118.3            0      28.5564     28123.32     60701588    2.7696653 
     700    5428879.9            0      28.8258    28926.796     52527571    2.6927346 
     800    4833248.4            0      29.0952    29745.431     45505333    2.6186268 
     900    4307347.1            0      29.3646    30579.367     39463962    2.5472137 
    1000    3842605.4            0       29.634    31428.746     34259201    2.4783739 
    1100    3431569.5            0      29.9034    32293.709     29768992    2.4119924 
    1200    3067755.9            0      30.1728    33174.399     25890006    2.3479606 
    1300    2745513.2            0      30.4422    34070.957     22534582    2.2861754 
    1400    2459914.4            0      30.7116    34983.524     19628292    2.2265391 
    1500    2206653.5            0       30.981    35912.242     17107789    2.1689591 
    1600    1981962.2            0      31.2504    36857.253     14919082    2.1133475 
    1700    1782544.1            0      31.5198    37818.699     13016141    2.0596209 
    1800    1605509.8            0      31.7892    38796.721     11359648    2.0077002 
    1900    1448321.8            0      32.0586    39791.461    9915946.7      1.95751 
    2000    1308750.8            0       32.328     40803.06    8656206.8     1.908979 
    2100    1184835.8            0      32.5974    41831.661    7555701.6     1.862039 
    2200    1074851.6            0      32.8668    42877.405    6593203.5    1.8166254 
    2300    977279.32            0      33.1362    43940.433    5750477.7    1.7726767 
    2400    890772.66            0      33.4056    45020.888    5011762.6    1.7301343 
    2500    814147.76            0       33.675     46118.91    4363523.7    1.6889424 
    2600    746354.73            0      33.9444    47234.642    3794047.8    1.6490478 
    2700     686467.4            0      34.2138    48368.226    3293242.5    1.6103998 
    2800    633663.11            0      34.4832    49519.803      2852356    1.5729502 
    2900    587212.54            0      34.7526    50689.514    2463807.9    1.5366528 
    3000    546470.05            0       35.022    51877.502    2121045.5    1.5014636 
    3100    510858.23            0      35.2914    53083.908    1818344.2    1.4673408 
    3200    479865.38            0      35.5608    54308.873      1550749    1.4342441 
    3300    453036.59            0      35.8302     55552.54    1313952.5    1.4021354 
    3400    429963.06            0      36.0996     56815.05    1104179.5     1.370978 
    3500    410280.59            0       36.369    58096.545    918143.91    1.3407369 
    3600    393664.99            0      36.6384    59397.166    752996.81    1.3113788 
    3700     379819.9            0      36.9078    60717.055    606202.66    1.2828716 
    3800    368477.37            0      37.1772    62056.354    475543.21    1.2551847 
    3900    359387.04            0      37.4466    63415.205    359031.61    1.2282888 
    4000    352307.41            0       37.716    64793.748    254874.05    1.2021558 
    4100     346968.9            0      37.9854    66192.127    161297.56     1.176759 
    4200    342926.16            0      38.2548    67610.482    76010.702    1.1520726 
    4300    332465.16            0    38.432604    68557.608   -7376.6719    1.1361567 
    4400    315117.89            0    38.163204    67125.991   -5060.6755    1.1603878 
    4500    297318.37            0    37.893804    65714.444   -3938.5464     1.185313 
    4600    279253.51            0    37.624404    64322.825   -3068.0409    1.2109571 
    4700    260839.88            0    37.355004    62950.993   -2378.1378    1.2373464 
    4800    241946.25            0    37.085604    61598.806   -1831.5596     1.264508 
    4900    222396.69            0    36.816204    60266.122   -1401.2835    1.2924705 
    5000    201966.62            0    36.546804      58952.8   -1066.6795    1.3212635 
    5100     180391.4            0    36.277404    57658.698   -805.70501    1.3509182 
    5200    157359.65            0    36.008004    56383.674   -608.40091     1.381467 
    5300     132497.7            0    35.738604    55127.586     -453.877    1.4129438 
    5400    105293.73            0    35.469204    53890.294   -330.65591    1.4453843 
    5500    74914.483            0    35.199804    52671.654   -153.03651    1.4788255 
    5600    37533.886            0    34.930404    51471.527   -2853.4329    1.5133063 
    5700   -2289.3505            0     34.67178    50336.688   -1111.5587    1.5474237 
    5800   -27621.542            0    34.558632    49845.488     32.23611    1.5626727 
    5900   -54240.103            0      34.4832    49519.803   -463.71679    1.5729502 
    6000   -78455.597            0    34.445484    49357.494   -380.86342    1.5781227 
    6100   -95895.743            0    34.440096    49334.336   -296.36692    1.5788635 
    6200   -109565.39            0    34.445484    49357.494    220.22889    1.5781227 
    6300   -150373.78            0    34.559017    49847.152   -121.65106    1.5626205 
    6400   -169513.85            0    34.623673    50127.451   -154.25427    1.5538828 
    6500   -184565.55            0    34.661389    50291.443    58.623083    1.5488158 
    6600   -191325.37            0    34.666777      50314.9    196.70265    1.5480938 
    6700    -196191.9            0    34.672165    50338.364   -133.84134    1.5473722 
    6800   -201095.28            0    34.666777      50314.9    191.87042    1.5480938 
    6900    -205278.5            0    34.666777      50314.9   -124.66354    1.5480938 
    7000   -221258.46            0    34.650613    50244.552    -124.0935    1.5502613 
    7100   -226864.63            0    34.629061    50150.857    75.424467    1.5531576 
    7200   -230949.92            0    34.612897    50080.662    26.757054    1.5553345 
    7300    -237676.8            0    34.580569    49940.469    101.11953    1.5597007 
    7400   -241532.18            0    34.559017    49847.152    120.40806    1.5626205 
    7500   -244463.71            0    34.542853    49777.241  0.083961856    1.5648152 
    7600   -254022.06            0    34.487046    49536.372   -77.669154    1.5724241 
    7700   -255949.17            0    34.470882    49466.752   -205.26543    1.5746371 
    7800   -258684.89            0    34.443942    49350.863    -216.4366    1.5783348 
    7900   -261751.54            0    34.411614    49212.036   -264.12728    1.5827872 
    8000   -265014.03            0    34.373898    49050.401   -229.79333     1.588003 
    8100   -271349.93            0    34.303854     48751.16   -831.14271    1.5977504 
    8200   -274589.74            0    34.255362    48544.708   -128.38428    1.6045453 
    8300   -276975.25            0    34.223034    48407.397    83.303476    1.6090967 
    8400   -278677.14            0    34.201482    48316.001    108.39728    1.6121405 
    8500   -280248.84            0    34.185318    48247.529   -189.17688    1.6144284 
    8600   -281838.56            0    34.163766    48156.335    14.693488    1.6174857 
    8700   -283080.39            0    34.147602    48088.014    144.45877    1.6197837 
    8800   -285700.39            0    34.120662     47974.29   -142.80321    1.6236235 
    8900   -288514.67            0    34.088334    47838.057   -104.49504    1.6282472 
    9000   -289737.84            0     34.07217    47770.038    72.749256    1.6305656 
    9100   -290708.29            0    34.061394    47724.728   0.41820794    1.6321137 
    9200   -293680.19            0    34.023678    47566.367    197.17794    1.6375474 
    9300   -294503.62            0     34.01829    47543.773   -257.62356    1.6383257 
    9400   -295555.88            0    34.002126    47476.033    46.560847    1.6406633 
    9500   -296575.01            0     33.99135    47430.909   -127.86947    1.6422241 
    9600   -297789.71            0    33.975186    47363.276   -10.572129    1.6445692 
    9700   -298574.31            0     33.96441    47318.223    105.01825     1.646135 
    9800   -299503.82            0    33.953634    47273.199    59.566606    1.6477028 
    9900   -300618.47            0    33.942858    47228.204   -181.66849    1.6492726 
   10000   -302688.38            0    33.915918     47115.84    141.76332    1.6532059 
Loop time of 40.1581 on 14 procs for 10000 steps with 3956 atoms

98.3% CPU use with 14 MPI tasks x 1 OpenMP threads

Minimization stats:
  Stopping criterion = max iterations
  Energy initial, next-to-last, final = 
         12607145.1564     -302683.642863     -302688.379396
  Force two-norm initial, final = 1.54918e+08 3028.8
  Force max component initial, final = 1.53349e+08 232.125
  Final line search alpha, max atom move = 5.1746e-07 0.000120116
  Iterations, force evaluations = 10000 10000

MPI task timing breakdown:
Section |  min time  |  avg time  |  max time  |%varavg| %total
---------------------------------------------------------------
Pair    | 19.078     | 25.022     | 30.03      |  71.9 | 62.31
Bond    | 0.05663    | 0.12763    | 0.1819     |  13.2 |  0.32
Kspace  | 4.3654     | 9.4361     | 15.42      | 118.4 | 23.50
Neigh   | 0.11562    | 0.11587    | 0.1162     |   0.0 |  0.29
Comm    | 1.2095     | 1.271      | 1.3697     |   3.8 |  3.17
Output  | 0.0016739  | 0.0026419  | 0.015148   |   6.7 |  0.01
Modify  | 0          | 0          | 0          |   0.0 |  0.00
Other   |            | 4.182      |            |       | 10.41

Nlocal:    282.571 ave 318 max 250 min
Histogram: 4 0 2 0 0 2 0 2 2 2
Nghost:    6655.29 ave 6861 max 6362 min
Histogram: 2 0 2 0 0 2 2 4 0 2
Neighs:    106500 ave 123176 max 90082 min
Histogram: 2 4 0 0 0 2 0 2 2 2

Total # of neighbors = 1490996
Ave neighs/atom = 376.895
Ave special neighs/atom = 0.835187
Neighbor list builds = 22
Dangerous builds = 0
unfix           f1

# ----- reset timestep and dt -----
reset_timestep  0
timestep        ${fs}
timestep        0.5

# ----- Output setting -----

variable Energy equal etotal
variable pe equal pe
variable ke equal ke
variable evdwl  equal evdwl
variable ecoul  equal ecoul
variable epair equal epair
variable elong equal elong
variable etail  equal etail
variable temp equal temp
variable press equal press
variable vol equal vol
variable lx equal lx
variable ly equal ly
variable lz equal lz
variable density equal density

# ----- Check equilibriation setting -----
fix   fout2 all ave/time 1 1000 1000 v_pe v_ke v_evdwl v_ecoul v_epair v_elong v_etail v_temp v_press v_vol v_lx v_ly v_lz v_density ave  running file min.profile
fix     fout1 all ave/time 1 ${nfrequ} ${nfrequ} v_Energy v_temp v_press file out_energy.txt
fix     fout1 all ave/time 1 100 ${nfrequ} v_Energy v_temp v_press file out_energy.txt
fix     fout1 all ave/time 1 100 100 v_Energy v_temp v_press file out_energy.txt

velocity        all create 300.0 321456789
fix ab all shake 0.0001 20 0 b 2 a 1
  0 = # of size 2 clusters
  0 = # of size 3 clusters
  0 = # of size 4 clusters
  308 = # of frozen angles
compute myRDF all rdf 100 2 10  2 11  7 6 #Caw-Ohw, Caw-Ow
# ----- Equilibriation (NVT) -----
print "----- Equilibriation (NVT) start -----"
----- Equilibriation (NVT) start -----
fix             f1 all nvt temp 300.0 300.0 ${tdamp}
fix             f1 all nvt temp 300.0 300.0 50
run             ${nstep2}
run             100000
PPPM initialization ...
  using 12-bit tables for long-range coulomb (src/kspace.cpp:321)
  G vector (1/distance) = 0.28253
  grid = 24 30 27
  stencil order = 5
  estimated absolute RMS force accuracy = 0.0291602
  estimated relative force accuracy = 8.7815e-05
  using double precision FFTs
  3d grid and FFT values/proc = 7502 1440
Neighbor list info ...
  update every 1 steps, delay 5 steps, check yes
  max neighbors/atom: 2000, page size: 100000
  master list distance cutoff = 13
  ghost atom cutoff = 13
  binsize = 6.5, bins = 8 5 7
  2 neighbor lists, perpetual/occasional/extra = 1 1 0
  (1) pair lj/cut/coul/long, perpetual
      attributes: half, newton on
      pair build: half/bin/newton/tri
      stencil: half/bin/3d/newton/tri
      bin: standard
  (2) compute rdf, occasional, copy from (1)
      attributes: half, newton on
      pair build: copy
      stencil: none
      bin: none
Per MPI rank memory allocation (min/avg/max) = 8.65 | 8.899 | 9.161 Mbytes
Step TotEng Temp Lx Volume Press Density 
       0   -300663.74    325.33589    33.915918     47115.84    4142.8571    1.6532059 
     100   -319794.51    2513.3893    33.915918     47115.84    24131.386    1.6532059 
     200   -343741.41    1630.0081    33.915918     47115.84    15396.319    1.6532059 
     300   -358701.68    1122.8733    33.915918     47115.84     4632.526    1.6532059 
     400   -367899.88    798.58759    33.915918     47115.84    6171.6455    1.6532059 
     500   -373723.84    601.42676    33.915918     47115.84     995.9466    1.6532059 
     600   -377550.61    479.15089    33.915918     47115.84   -2795.0189    1.6532059 
     700   -380164.67    392.44239    33.915918     47115.84   -2517.2132    1.6532059 
     800   -381971.15    346.65179    33.915918     47115.84   -2998.4739    1.6532059 
     900   -383246.98    309.37833    33.915918     47115.84   -2272.0013    1.6532059 
    1000   -384116.34    298.44254    33.915918     47115.84   -1274.3753    1.6532059 
    1100   -384656.98     285.3691    33.915918     47115.84   -1097.0354    1.6532059 
    1200   -384884.56    289.43953    33.915918     47115.84   -3221.2738    1.6532059 
    1300   -384890.37    299.00321    33.915918     47115.84   -1153.3391    1.6532059 
    1400   -384797.35    307.36588    33.915918     47115.84   -746.03824    1.6532059 
    1500   -384789.99    307.40896    33.915918     47115.84   -3433.7998    1.6532059 
    1600   -384960.75    304.39194    33.915918     47115.84   -1343.1813    1.6532059 
    1700   -385198.38    293.39109    33.915918     47115.84   -2038.6305    1.6532059 
    1800   -385351.06    291.35692    33.915918     47115.84   -2476.4452    1.6532059 
    1900   -385403.62    301.94456    33.915918     47115.84   -3662.6675    1.6532059 
    2000   -385455.66    296.87091    33.915918     47115.84   -2154.7248    1.6532059 
    2100   -385489.33    298.69469    33.915918     47115.84   -2579.9748    1.6532059 
    2200   -385554.98    301.65994    33.915918     47115.84   -3792.0812    1.6532059 
    2300   -385617.64    296.45813    33.915918     47115.84   -914.40931    1.6532059 
    2400   -385602.73    299.19819    33.915918     47115.84   -2127.8356    1.6532059 
    2500   -385568.69    302.53156    33.915918     47115.84   -766.50782    1.6532059 
    2600   -385618.22    298.34589    33.915918     47115.84   -1007.7183    1.6532059 
    2700   -385708.62    301.09626    33.915918     47115.84   -2592.3229    1.6532059 
    2800   -385773.04    291.68333    33.915918     47115.84   -3443.0171    1.6532059 
    2900   -385736.03     304.3336    33.915918     47115.84   -3719.0959    1.6532059 
    3000   -385737.51    305.37407    33.915918     47115.84   -3808.9056    1.6532059 
    3100   -385843.41    298.64894    33.915918     47115.84   -4455.2139    1.6532059 
    3200   -385915.98    298.36543    33.915918     47115.84    -2264.517    1.6532059 
    3300   -385939.39     296.8023    33.915918     47115.84   -3422.6213    1.6532059 
    3400    -385927.7    297.92451    33.915918     47115.84   -2498.1552    1.6532059 
    3500   -385955.26    302.65892    33.915918     47115.84   -5501.4688    1.6532059 
    3600    -386064.2    304.54572    33.915918     47115.84   -1660.9229    1.6532059 
    3700   -386156.83    292.00803    33.915918     47115.84   -2763.3927    1.6532059 
    3800   -386171.03    298.80428    33.915918     47115.84   -2572.4665    1.6532059 
    3900      -386126     303.8193    33.915918     47115.84   -2036.1666    1.6532059 
    4000   -386114.39    302.82955    33.915918     47115.84   -3421.3488    1.6532059 
    4100   -386193.24    300.99482    33.915918     47115.84   -2228.6949    1.6532059 
    4200   -386292.36    292.88098    33.915918     47115.84   -2358.5876    1.6532059 
    4300   -386259.82    299.89955    33.915918     47115.84   -2556.1746    1.6532059 
    4400   -386209.67    301.19785    33.915918     47115.84   -3066.6513    1.6532059 
    4500   -386252.75    298.92425    33.915918     47115.84   -2463.6109    1.6532059 
    4600   -386340.96    294.87396    33.915918     47115.84   -3676.6617    1.6532059 
    4700    -386390.9    291.57353    33.915918     47115.84   -4051.8705    1.6532059 
    4800   -386324.06    297.09818    33.915918     47115.84   -2062.0112    1.6532059 
    4900    -386185.9      302.625    33.915918     47115.84   -3567.6285    1.6532059 
    5000   -386161.14    307.91303    33.915918     47115.84    -3818.007    1.6532059 
    5100   -386334.94    300.62945    33.915918     47115.84    -5250.572    1.6532059 
    5200   -386539.75    298.48044    33.915918     47115.84   -2377.0165    1.6532059 
    5300   -386609.49    289.02405    33.915918     47115.84   -2023.1613    1.6532059 
    5400   -386475.69    300.69965    33.915918     47115.84   -4397.0553    1.6532059 
    5500   -386333.95    309.69669    33.915918     47115.84   -3324.6547    1.6532059 
    5600   -386302.56    309.31631    33.915918     47115.84    -2513.981    1.6532059 
    5700   -386409.83    305.69804    33.915918     47115.84   -1860.1876    1.6532059 
    5800   -386563.08    301.34442    33.915918     47115.84   -4202.6716    1.6532059 
    5900    -386643.9    293.84646    33.915918     47115.84   -4185.8871    1.6532059 
    6000   -386595.41    292.14344    33.915918     47115.84    -4716.926    1.6532059 
    6100   -386454.89     297.8557    33.915918     47115.84   -3319.3156    1.6532059 
    6200      -386324    306.62641    33.915918     47115.84   -3940.3718    1.6532059 
    6300   -386325.13    305.91284    33.915918     47115.84   -4890.8298    1.6532059 
    6400   -386487.81    299.57281    33.915918     47115.84   -3664.1867    1.6532059 
    6500   -386652.58    293.84469    33.915918     47115.84   -4579.3886    1.6532059 
    6600   -386701.64    291.80599    33.915918     47115.84   -3253.4778    1.6532059 
    6700   -386616.29    299.05841    33.915918     47115.84   -2828.4283    1.6532059 
    6800   -386473.36    306.09759    33.915918     47115.84   -3480.1912    1.6532059 
    6900   -386411.68    300.60467    33.915918     47115.84   -3703.3594    1.6532059 
    7000   -386442.47     305.9751    33.915918     47115.84   -3088.4342    1.6532059 
    7100   -386566.55    296.85478    33.915918     47115.84   -2545.0677    1.6532059 
    7200   -386642.04    300.02929    33.915918     47115.84   -5870.4656    1.6532059 
    7300   -386645.14    296.81394    33.915918     47115.84   -3878.3595    1.6532059 
    7400   -386568.95    300.69544    33.915918     47115.84   -3764.9176    1.6532059 
    7500   -386550.82    302.16649    33.915918     47115.84   -3337.6887    1.6532059 
    7600   -386590.93    299.58435    33.915918     47115.84   -2823.5347    1.6532059 
    7700   -386648.74    302.81702    33.915918     47115.84   -4739.0709    1.6532059 
    7800   -386701.74    294.52131    33.915918     47115.84   -3682.7304    1.6532059 
    7900    -386687.3    297.48396    33.915918     47115.84   -4866.0956    1.6532059 
    8000   -386613.46    305.59242    33.915918     47115.84   -4426.1391    1.6532059 
    8100   -386577.08    302.78027    33.915918     47115.84   -3370.0847    1.6532059 
    8200   -386619.71    303.82828    33.915918     47115.84   -3582.0683    1.6532059 
    8300   -386733.31     295.3075    33.915918     47115.84   -2641.5655    1.6532059 
    8400   -386823.86    298.75864    33.915918     47115.84   -4127.9939    1.6532059 
    8500   -386822.46    294.49206    33.915918     47115.84   -3932.1441    1.6532059 
    8600   -386714.87    303.07336    33.915918     47115.84   -3690.7853    1.6532059 
    8700   -386660.59     305.1181    33.915918     47115.84   -2397.4584    1.6532059 
    8800   -386719.74    298.69163    33.915918     47115.84   -3953.9178    1.6532059 
    8900   -386787.57    298.11523    33.915918     47115.84   -3624.6288    1.6532059 
    9000   -386772.43    299.95502    33.915918     47115.84   -5525.9606    1.6532059 
    9100   -386712.15    302.96955    33.915918     47115.84   -4581.5611    1.6532059 
    9200   -386716.54    303.21972    33.915918     47115.84   -5500.6364    1.6532059 
    9300   -386743.51    304.85999    33.915918     47115.84   -3929.0328    1.6532059 
    9400   -386759.53    297.82571    33.915918     47115.84   -3327.7228    1.6532059 
    9500   -386754.31    302.77048    33.915918     47115.84   -3884.5121    1.6532059 
    9600    -386758.7    301.18523    33.915918     47115.84   -3783.0287    1.6532059 
    9700   -386757.15    299.30546    33.915918     47115.84   -3798.4513    1.6532059 
    9800    -386756.4    301.06503    33.915918     47115.84   -4455.7751    1.6532059 
    9900    -386757.3    299.88759    33.915918     47115.84   -3496.1802    1.6532059 
   10000   -386757.62    307.17926    33.915918     47115.84    -4421.612    1.6532059 
   10100   -386769.13    300.38372    33.915918     47115.84    -4382.324    1.6532059 
   10200   -386707.64    306.42282    33.915918     47115.84   -3706.8522    1.6532059 
   10300   -386690.63    303.14681    33.915918     47115.84    -3808.528    1.6532059 
   10400   -386759.45    298.38155    33.915918     47115.84   -3321.8141    1.6532059 
   10500   -386818.77    300.27423    33.915918     47115.84    -2135.933    1.6532059 
   10600   -386824.42    296.46802    33.915918     47115.84   -3231.2674    1.6532059 
   10700   -386748.02    298.92673    33.915918     47115.84   -4998.2385    1.6532059 
   10800   -386654.84     307.7466    33.915918     47115.84   -3216.2021    1.6532059 
   10900   -386683.57    303.58343    33.915918     47115.84   -1923.9611    1.6532059 
   11000   -386820.98    303.05509    33.915918     47115.84   -4544.1092    1.6532059 
   11100    -386938.9    288.64953    33.915918     47115.84   -4166.8955    1.6532059 
   11200   -386880.36    295.86956    33.915918     47115.84   -3860.0084    1.6532059 
   11300   -386742.62    300.33457    33.915918     47115.84   -5864.4526    1.6532059 
   11400   -386636.75    306.34679    33.915918     47115.84    -2435.162    1.6532059 
   11500    -386662.7    301.74055    33.915918     47115.84   -3564.1681    1.6532059 
   11600   -386780.92    301.11057    33.915918     47115.84   -2868.6816    1.6532059 
   11700   -386930.18    297.68785    33.915918     47115.84   -5187.1288    1.6532059 
   11800   -386991.77    292.68248    33.915918     47115.84   -3012.4314    1.6532059 
   11900   -386905.55    301.10233    33.915918     47115.84   -3162.6512    1.6532059 
   12000   -386751.12    303.67556    33.915918     47115.84   -3361.2828    1.6532059 
   12100   -386686.95     306.5621    33.915918     47115.84   -3221.8295    1.6532059 
   12200   -386735.86    297.24366    33.915918     47115.84   -1199.8625    1.6532059 
   12300   -386775.03     302.9725    33.915918     47115.84   -4384.1233    1.6532059 
   12400   -386840.59    299.77418    33.915918     47115.84   -3237.9804    1.6532059 
   12500   -386888.13      292.573    33.915918     47115.84     -5397.04    1.6532059 
   12600   -386889.99     297.7009    33.915918     47115.84    -3161.178    1.6532059 
   12700   -386844.59    299.74262    33.915918     47115.84    -3152.271    1.6532059 
   12800   -386803.83    301.40398    33.915918     47115.84   -4778.3938    1.6532059 
   12900    -386833.4    297.34682    33.915918     47115.84   -2226.9812    1.6532059 
   13000   -386886.54    297.45338    33.915918     47115.84   -6223.4138    1.6532059 
   13100   -386917.85    305.72957    33.915918     47115.84   -3772.5991    1.6532059 
   13200   -386891.41       297.82    33.915918     47115.84   -5136.3077    1.6532059 
   13300   -386813.95    302.63099    33.915918     47115.84   -4470.9032    1.6532059 
   13400    -386768.1    304.82478    33.915918     47115.84   -3336.9909    1.6532059 
   13500      -386796    299.95588    33.915918     47115.84   -5052.7036    1.6532059 
   13600   -386850.41      297.628    33.915918     47115.84    -4498.666    1.6532059 
   13700   -386858.04     296.5453    33.915918     47115.84   -5008.5187    1.6532059 
   13800   -386851.67     298.9182    33.915918     47115.84   -4020.6785    1.6532059 
   13900   -386881.57    304.11406    33.915918     47115.84    -5542.836    1.6532059 
   14000    -386899.6     294.4076    33.915918     47115.84   -3358.6935    1.6532059 
   14100   -386883.38    300.53836    33.915918     47115.84   -3780.7725    1.6532059 
   14200   -386889.98    299.39375    33.915918     47115.84   -3875.8366    1.6532059 
   14300   -386858.66     301.9308    33.915918     47115.84   -3459.0636    1.6532059 
   14400   -386840.44    301.77814    33.915918     47115.84   -4435.7789    1.6532059 
   14500   -386880.21    304.09959    33.915918     47115.84    -2698.882    1.6532059 
   14600   -386928.84    297.29075    33.915918     47115.84    -3866.969    1.6532059 
   14700    -386925.7    301.72455    33.915918     47115.84   -4683.3609    1.6532059 
   14800   -386881.27    296.63407    33.915918     47115.84   -3953.3081    1.6532059 
   14900    -386846.7    302.73914    33.915918     47115.84   -4066.3379    1.6532059 
   15000   -386817.73    301.65116    33.915918     47115.84     -5520.56    1.6532059 
   15100   -386794.46    297.23435    33.915918     47115.84    -2879.667    1.6532059 
   15200   -386803.02    303.17501    33.915918     47115.84   -5018.8954    1.6532059 
   15300   -386876.81    299.23643    33.915918     47115.84   -3599.8352    1.6532059 
   15400   -386924.09    295.45334    33.915918     47115.84   -3948.5333    1.6532059 
   15500   -386916.53    303.85417    33.915918     47115.84   -2072.3682    1.6532059 
   15600    -386915.8    297.76629    33.915918     47115.84    -6095.588    1.6532059 
   15700   -386865.57    298.07337    33.915918     47115.84   -2572.6989    1.6532059 
   15800   -386836.97    306.18056    33.915918     47115.84    -2999.871    1.6532059 
   15900   -386859.21    298.18415    33.915918     47115.84   -4946.5324    1.6532059 
   16000   -386911.63    296.75121    33.915918     47115.84   -1863.3576    1.6532059 
   16100   -386952.83    294.78754    33.915918     47115.84   -4069.2545    1.6532059 
   16200   -386927.42    299.83663    33.915918     47115.84   -5423.1915    1.6532059 
   16300   -386855.26    304.12871    33.915918     47115.84   -4431.3574    1.6532059 
   16400   -386831.87    302.09422    33.915918     47115.84   -5837.1648    1.6532059 
   16500   -386862.01    302.23323    33.915918     47115.84   -3231.9105    1.6532059 
   16600   -386938.12     299.2991    33.915918     47115.84   -4289.1382    1.6532059 
   16700   -386988.07    292.81563    33.915918     47115.84   -3653.6552    1.6532059 
   16800   -386935.23    302.54827    33.915918     47115.84   -4950.4204    1.6532059 
   16900   -386856.67    304.18345    33.915918     47115.84   -3980.4726    1.6532059 
   17000   -386846.78     300.9405    33.915918     47115.84   -3673.4884    1.6532059 
   17100   -386887.71    305.98313    33.915918     47115.84   -2962.7532    1.6532059 
   17200   -386957.43    294.73555    33.915918     47115.84   -3706.2194    1.6532059 
   17300    -386955.3    298.90174    33.915918     47115.84    -4198.335    1.6532059 
   17400   -386922.35    302.73729    33.915918     47115.84   -3316.2947    1.6532059 
   17500    -386877.3    302.92393    33.915918     47115.84   -4362.6853    1.6532059 
   17600   -386828.28    306.94929    33.915918     47115.84   -2678.9154    1.6532059 
   17700   -386831.34    302.02212    33.915918     47115.84   -4154.0793    1.6532059 
   17800   -386908.06    296.18522    33.915918     47115.84   -2980.4928    1.6532059 
   17900   -386977.36    298.43975    33.915918     47115.84   -4593.5179    1.6532059 
   18000   -386992.46    297.54161    33.915918     47115.84   -3834.2191    1.6532059 
   18100   -386969.36    300.00529    33.915918     47115.84   -2892.4917    1.6532059 
   18200   -386950.25    300.86211    33.915918     47115.84   -3862.6086    1.6532059 
   18300   -386936.92    305.84261    33.915918     47115.84   -3211.1262    1.6532059 
   18400      -386943    297.35769    33.915918     47115.84    -3297.375    1.6532059 
   18500   -386923.14    298.96445    33.915918     47115.84   -4015.2202    1.6532059 
   18600   -386887.34    302.49967    33.915918     47115.84   -2681.2985    1.6532059 
   18700   -386864.39    300.90435    33.915918     47115.84   -4650.8585    1.6532059 
   18800   -386876.63    302.59381    33.915918     47115.84   -3641.0513    1.6532059 
   18900   -386911.96    298.55107    33.915918     47115.84   -3551.8347    1.6532059 
   19000    -386932.1    296.78632    33.915918     47115.84   -3884.9627    1.6532059 
   19100   -386965.15    297.73552    33.915918     47115.84   -4277.5956    1.6532059 
   19200   -387003.28    294.32637    33.915918     47115.84   -3841.8845    1.6532059 
   19300   -386988.64    301.29095    33.915918     47115.84   -4415.2742    1.6532059 
   19400   -386924.37    304.45429    33.915918     47115.84   -1460.7344    1.6532059 
   19500   -386898.23    306.27164    33.915918     47115.84   -4221.7448    1.6532059 
   19600   -386954.93    303.75095    33.915918     47115.84   -2456.8817    1.6532059 
   19700   -387022.55    294.54195    33.915918     47115.84   -3349.9716    1.6532059 
   19800   -387040.28     296.6015    33.915918     47115.84   -3955.8738    1.6532059 
   19900   -386986.03    298.35751    33.915918     47115.84   -3692.1382    1.6532059 
   20000   -386928.05    302.70794    33.915918     47115.84   -2457.8533    1.6532059 
   20100   -386932.22    298.48183    33.915918     47115.84   -4018.4493    1.6532059 
   20200   -386929.77    296.68206    33.915918     47115.84   -2790.9973    1.6532059 
   20300   -386946.01    299.80693    33.915918     47115.84   -4664.0154    1.6532059 
   20400   -386993.94    295.37241    33.915918     47115.84   -3113.2565    1.6532059 
   20500   -386995.02    305.39441    33.915918     47115.84   -3959.9081    1.6532059 
   20600   -386986.33    301.27125    33.915918     47115.84    -4669.656    1.6532059 
   20700   -386936.42    302.44191    33.915918     47115.84   -2897.6167    1.6532059 
   20800   -386906.68    305.58137    33.915918     47115.84   -3923.3273    1.6532059 
   20900   -386961.34    303.40245    33.915918     47115.84   -4354.8797    1.6532059 
   21000   -387067.47    297.65905    33.915918     47115.84   -3306.2375    1.6532059 
   21100   -387133.77    292.04732    33.915918     47115.84   -3441.2101    1.6532059 
   21200   -387108.61    299.97933    33.915918     47115.84   -4325.3888    1.6532059 
   21300   -387033.13    299.92398    33.915918     47115.84   -3538.1483    1.6532059 
   21400   -386968.58    302.27513    33.915918     47115.84   -5082.6568    1.6532059 
   21500   -386927.17    300.09521    33.915918     47115.84   -4574.4091    1.6532059 
   21600   -386924.73    301.39684    33.915918     47115.84   -5451.3337    1.6532059 
   21700   -386997.31    298.42866    33.915918     47115.84   -3409.1158    1.6532059 
   21800   -387065.71    298.13556    33.915918     47115.84   -4103.8751    1.6532059 
   21900   -387057.46    297.82825    33.915918     47115.84   -3770.2563    1.6532059 
   22000   -386989.97    303.43414    33.915918     47115.84   -2570.7925    1.6532059 
   22100   -386968.97     299.9556    33.915918     47115.84   -4732.0744    1.6532059 
   22200    -386941.9    298.48352    33.915918     47115.84   -2228.1796    1.6532059 
   22300   -386912.24    303.80562    33.915918     47115.84   -4529.8306    1.6532059 
   22400   -386959.48    301.48727    33.915918     47115.84   -3584.8576    1.6532059 
   22500   -387019.49    294.10953    33.915918     47115.84   -3935.3942    1.6532059 
   22600   -387042.59    299.76426    33.915918     47115.84   -4301.1757    1.6532059 
   22700   -387008.25     301.4449    33.915918     47115.84   -4123.3112    1.6532059 
   22800   -386963.84    301.29539    33.915918     47115.84    -3381.052    1.6532059 
   22900   -386961.45    300.81493    33.915918     47115.84   -3595.3902    1.6532059 
   23000   -386993.09    296.83421    33.915918     47115.84    -3547.456    1.6532059 
   23100   -387000.52    297.01406    33.915918     47115.84    -3472.659    1.6532059 
   23200   -386992.44    301.47294    33.915918     47115.84   -3961.7213    1.6532059 
   23300   -387013.29    299.74469    33.915918     47115.84    -5708.093    1.6532059 
   23400   -387034.45    301.40998    33.915918     47115.84   -4141.3324    1.6532059 
   23500    -387043.2    296.59322    33.915918     47115.84   -5351.8653    1.6532059 
   23600   -387007.79    301.41973    33.915918     47115.84   -2712.9409    1.6532059 
   23700   -386939.72    303.08608    33.915918     47115.84   -3370.5083    1.6532059 
   23800   -386890.82    303.46315    33.915918     47115.84    -3898.482    1.6532059 
   23900    -386903.8    304.10739    33.915918     47115.84   -3262.7451    1.6532059 
   24000   -386998.24    296.94064    33.915918     47115.84   -3739.4885    1.6532059 
   24100   -387071.98    304.05721    33.915918     47115.84   -3316.1326    1.6532059 
   24200   -387122.27    298.31203    33.915918     47115.84   -4232.8082    1.6532059 
   24300      -387096    295.10513    33.915918     47115.84   -4732.6724    1.6532059 
   24400   -386987.46    302.54191    33.915918     47115.84   -3190.4356    1.6532059 
   24500   -386904.34    303.58312    33.915918     47115.84   -3773.1977    1.6532059 
   24600   -386918.98     298.5752    33.915918     47115.84   -3424.2595    1.6532059 
   24700   -386992.31    302.81311    33.915918     47115.84   -4525.8565    1.6532059 
   24800   -387128.32    296.18662    33.915918     47115.84   -3228.2017    1.6532059 
   24900   -387185.57    293.37404    33.915918     47115.84    -3219.155    1.6532059 
   25000   -387109.29    296.99857    33.915918     47115.84   -2105.4484    1.6532059 
   25100   -386978.75    304.45229    33.915918     47115.84   -3524.9834    1.6532059 
   25200    -386921.4    302.14803    33.915918     47115.84   -2536.7478    1.6532059 
   25300    -386939.6    298.28696    33.915918     47115.84    -2709.289    1.6532059 
   25400   -386968.93    298.32218    33.915918     47115.84   -3367.2224    1.6532059 
   25500   -387026.77    300.09692    33.915918     47115.84   -3411.5806    1.6532059 
   25600   -387086.63    296.87986    33.915918     47115.84   -3350.5485    1.6532059 
   25700   -387095.74    303.82261    33.915918     47115.84   -2998.6998    1.6532059 
   25800   -387077.26    302.11003    33.915918     47115.84    -6248.944    1.6532059 
   25900   -387061.43    304.21646    33.915918     47115.84   -3450.6972    1.6532059 
   26000   -387059.93    296.69007    33.915918     47115.84   -3177.6048    1.6532059 
   26100   -387042.98    300.35623    33.915918     47115.84   -3625.0269    1.6532059 
   26200   -387004.78    298.38469    33.915918     47115.84   -3388.5656    1.6532059 
   26300   -386969.03    305.98115    33.915918     47115.84   -3450.6921    1.6532059 
   26400   -386991.51    305.85374    33.915918     47115.84   -2625.0958    1.6532059 
   26500   -387061.83      299.487    33.915918     47115.84   -3699.8344    1.6532059 
   26600   -387086.25    299.96711    33.915918     47115.84   -4259.2747    1.6532059 
   26700   -387105.23    300.16178    33.915918     47115.84   -3098.3892    1.6532059 
   26800   -387118.28    293.05102    33.915918     47115.84   -3905.5197    1.6532059 
   26900   -387047.47    302.43261    33.915918     47115.84   -3151.8405    1.6532059 
   27000   -386977.35     310.1705    33.915918     47115.84   -2788.0059    1.6532059 
   27100   -387024.78    306.66445    33.915918     47115.84   -2870.2949    1.6532059 
   27200    -387125.5    292.76161    33.915918     47115.84   -4069.7772    1.6532059 
   27300   -387188.36    299.81335    33.915918     47115.84   -2801.1099    1.6532059 
   27400   -387192.76    292.48255    33.915918     47115.84   -4351.7987    1.6532059 
   27500   -387079.84    299.40759    33.915918     47115.84   -4957.1326    1.6532059 
   27600   -386983.91    303.63349    33.915918     47115.84   -3189.9853    1.6532059 
   27700   -387010.09    300.09565    33.915918     47115.84   -4962.4521    1.6532059 
   27800   -387065.67    300.37669    33.915918     47115.84   -3820.2617    1.6532059 
   27900   -387097.97    295.00145    33.915918     47115.84   -4275.3808    1.6532059 
   28000   -387102.68     301.1426    33.915918     47115.84   -2975.3284    1.6532059 
   28100   -387134.54    297.18223    33.915918     47115.84   -3098.9216    1.6532059 
   28200   -387110.65    291.97137    33.915918     47115.84   -4119.0768    1.6532059 
   28300   -387036.09     301.1568    33.915918     47115.84   -3520.3665    1.6532059 
   28400   -386985.39    300.15731    33.915918     47115.84   -4136.3603    1.6532059 
   28500      -386964    311.04823    33.915918     47115.84   -5182.5975    1.6532059 
   28600   -387067.51    300.08517    33.915918     47115.84   -4357.6689    1.6532059 
   28700   -387117.48    297.49469    33.915918     47115.84   -3168.0877    1.6532059 
   28800   -387069.59     300.4342    33.915918     47115.84    -3263.242    1.6532059 
   28900    -386998.8    301.05819    33.915918     47115.84    -4414.772    1.6532059 
   29000   -386958.01    300.24908    33.915918     47115.84   -5028.1387    1.6532059 
   29100   -386985.97    303.24966    33.915918     47115.84   -2398.1394    1.6532059 
   29200   -387073.68    295.46182    33.915918     47115.84   -3813.3524    1.6532059 
   29300   -387105.56    295.66704    33.915918     47115.84   -2736.3356    1.6532059 
   29400   -387056.61    298.16762    33.915918     47115.84   -4678.8892    1.6532059 
   29500   -386991.63    309.51465    33.915918     47115.84   -3419.7618    1.6532059 
   29600   -387010.53    300.22936    33.915918     47115.84   -4111.3721    1.6532059 
   29700   -387022.78    297.65977    33.915918     47115.84   -4898.0844    1.6532059 
   29800   -387031.96    301.24219    33.915918     47115.84   -3165.2822    1.6532059 
   29900   -387065.85    300.69629    33.915918     47115.84   -2112.4937    1.6532059 
   30000   -387091.43    296.75031    33.915918     47115.84   -2802.3791    1.6532059 
   30100   -387050.28    300.57425    33.915918     47115.84   -2227.5407    1.6532059 
   30200   -386964.03    300.03803    33.915918     47115.84   -2703.7495    1.6532059 
   30300   -386897.99    303.39223    33.915918     47115.84     -3318.53    1.6532059 
   30400   -386936.52    303.85409    33.915918     47115.84   -3192.5305    1.6532059 
   30500   -387054.03    301.40312    33.915918     47115.84   -3949.7965    1.6532059 
   30600   -387139.44    300.93004    33.915918     47115.84   -4604.1666    1.6532059 
   30700   -387151.62     299.3211    33.915918     47115.84   -3312.6378    1.6532059 
   30800   -387090.49    294.90351    33.915918     47115.84   -5690.5513    1.6532059 
   30900   -387013.07    307.17514    33.915918     47115.84   -2107.0206    1.6532059 
   31000   -387029.38    302.03044    33.915918     47115.84   -3710.4365    1.6532059 
   31100   -387107.07     294.7236    33.915918     47115.84   -2021.3167    1.6532059 
   31200   -387140.24    296.74287    33.915918     47115.84   -3802.5225    1.6532059 
   31300   -387078.29    304.05948    33.915918     47115.84   -3695.7451    1.6532059 
   31400   -386980.69    308.93075    33.915918     47115.84   -3527.5387    1.6532059 
   31500   -386969.12    306.05123    33.915918     47115.84   -2399.9555    1.6532059 
   31600   -387053.12    300.02669    33.915918     47115.84   -1864.7999    1.6532059 
   31700    -387149.5    297.52753    33.915918     47115.84   -1820.2026    1.6532059 
   31800   -387202.53     292.7761    33.915918     47115.84   -3093.5718    1.6532059 
   31900   -387173.79    300.36677    33.915918     47115.84   -3917.8548    1.6532059 
   32000   -387103.51     294.4319    33.915918     47115.84   -3588.4678    1.6532059 
   32100   -387006.48    300.27793    33.915918     47115.84   -2766.1493    1.6532059 
   32200   -386987.19    304.13864    33.915918     47115.84   -2136.8521    1.6532059 
   32300   -387047.13     296.7518    33.915918     47115.84    -2814.973    1.6532059 
   32400   -387133.42    301.22833    33.915918     47115.84   -3241.6173    1.6532059 
   32500   -387219.19    296.60748    33.915918     47115.84   -2495.4114    1.6532059 
   32600   -387205.26    297.70269    33.915918     47115.84   -2742.1103    1.6532059 
   32700   -387109.16     302.0364    33.915918     47115.84   -2955.7687    1.6532059 
   32800   -387038.52    304.33763    33.915918     47115.84   -3821.5481    1.6532059 
   32900   -387050.28    307.26713    33.915918     47115.84   -3032.7469    1.6532059 
   33000   -387118.65    299.76822    33.915918     47115.84   -3793.4666    1.6532059 
   33100   -387131.95    295.29024    33.915918     47115.84   -3478.4901    1.6532059 
   33200   -387090.41    302.14445    33.915918     47115.84   -2377.9974    1.6532059 
   33300   -387074.39    305.25759    33.915918     47115.84   -3911.0306    1.6532059 
   33400   -387085.82    296.97476    33.915918     47115.84   -5338.3624    1.6532059 
   33500   -387087.27    297.11091    33.915918     47115.84   -2710.7779    1.6532059 
   33600   -387101.98    301.19287    33.915918     47115.84   -2481.3978    1.6532059 
   33700    -387130.1    299.62333    33.915918     47115.84   -1848.6027    1.6532059 
   33800   -387144.21    300.20193    33.915918     47115.84   -3336.3369    1.6532059 
   33900   -387110.39    299.71841    33.915918     47115.84   -2157.9821    1.6532059 
   34000   -387077.59    306.22683    33.915918     47115.84   -2373.5167    1.6532059 
   34100   -387094.54    302.16147    33.915918     47115.84   -2437.4064    1.6532059 
   34200   -387111.59    301.70325    33.915918     47115.84   -3249.6041    1.6532059 
   34300   -387135.88    296.95573    33.915918     47115.84    -4405.956    1.6532059 
   34400   -387134.74    301.73079    33.915918     47115.84   -2842.5674    1.6532059 
   34500   -387105.18    297.61788    33.915918     47115.84   -3055.7249    1.6532059 
   34600   -387063.05    305.60605    33.915918     47115.84   -2202.7652    1.6532059 
   34700   -387072.83    306.26905    33.915918     47115.84   -4061.5977    1.6532059 
   34800   -387105.52    299.20321    33.915918     47115.84   -2184.2335    1.6532059 
   34900   -387113.66    303.65339    33.915918     47115.84   -3469.6451    1.6532059 
   35000   -387124.22    297.46502    33.915918     47115.84   -2070.6484    1.6532059 
   35100   -387095.48    294.97806    33.915918     47115.84   -2141.5499    1.6532059 
   35200   -387046.34     302.0999    33.915918     47115.84   -2024.8253    1.6532059 
   35300   -387081.58     302.5174    33.915918     47115.84   -2452.7124    1.6532059 
   35400   -387152.38    293.86588    33.915918     47115.84    -4802.883    1.6532059 
   35500   -387156.56    302.66738    33.915918     47115.84   -3447.1082    1.6532059 
   35600   -387119.11    295.28318    33.915918     47115.84   -5685.2299    1.6532059 
   35700   -387024.89    299.78521    33.915918     47115.84   -2774.3177    1.6532059 
   35800    -386979.8    307.28882    33.915918     47115.84   -5020.2697    1.6532059 
   35900   -387062.15    302.61863    33.915918     47115.84   -516.02167    1.6532059 
   36000      -387161    296.23605    33.915918     47115.84     -2546.75    1.6532059 
   36100   -387214.57    297.70439    33.915918     47115.84   -2921.0501    1.6532059 
   36200   -387177.33    295.94977    33.915918     47115.84   -4394.0123    1.6532059 
   36300   -387081.28    301.32901    33.915918     47115.84   -4755.7728    1.6532059 
   36400   -387005.88    298.98174    33.915918     47115.84   -3229.3512    1.6532059 
   36500   -387002.95    302.95787    33.915918     47115.84   -2890.4857    1.6532059 
   36600    -387071.6    295.46637    33.915918     47115.84   -4140.9149    1.6532059 
   36700   -387119.86    301.58715    33.915918     47115.84   -5042.4484    1.6532059 
   36800   -387166.09    296.04445    33.915918     47115.84   -3659.3364    1.6532059 
   36900   -387155.97    302.53038    33.915918     47115.84   -5522.2337    1.6532059 
   37000   -387145.39     300.1894    33.915918     47115.84    -2181.253    1.6532059 
   37100    -387139.3    303.53514    33.915918     47115.84   -4477.2782    1.6532059 
   37200    -387118.4     298.8171    33.915918     47115.84   -3555.0388    1.6532059 
   37300   -387044.24    301.40591    33.915918     47115.84   -2810.5355    1.6532059 
   37400   -387019.65     307.4996    33.915918     47115.84    -5061.449    1.6532059 
   37500   -387084.72    299.97797    33.915918     47115.84   -3366.2373    1.6532059 
   37600   -387161.87    302.21663    33.915918     47115.84   -5629.9012    1.6532059 
   37700   -387210.21    295.90642    33.915918     47115.84   -3418.0355    1.6532059 
   37800   -387192.56    292.95146    33.915918     47115.84   -5279.0017    1.6532059 
   37900   -387075.56     300.9602    33.915918     47115.84   -5810.5824    1.6532059 
   38000   -386975.89    309.43099    33.915918     47115.84   -3332.6183    1.6532059 
   38100   -387006.07    302.49555    33.915918     47115.84   -3694.7628    1.6532059 
   38200   -387116.21    298.83135    33.915918     47115.84   -3914.1059    1.6532059 
   38300   -387216.95    296.79665    33.915918     47115.84   -4554.1696    1.6532059 
   38400   -387226.62    300.68272    33.915918     47115.84   -4578.9979    1.6532059 
   38500   -387164.03    296.48245    33.915918     47115.84   -1637.4508    1.6532059 
   38600   -387091.76     302.2926    33.915918     47115.84   -3026.7636    1.6532059 
   38700   -387038.83    297.75164    33.915918     47115.84   -2894.8376    1.6532059 
   38800   -387021.03    303.92879    33.915918     47115.84   -4725.1547    1.6532059 
   38900   -387053.55    300.23114    33.915918     47115.84   -3088.4444    1.6532059 
   39000   -387115.62    301.78593    33.915918     47115.84   -3802.4716    1.6532059 
   39100   -387152.58    296.62212    33.915918     47115.84   -4646.0525    1.6532059 
   39200   -387137.08    298.20375    33.915918     47115.84   -1808.0254    1.6532059 
   39300   -387101.55    299.18692    33.915918     47115.84   -4535.4823    1.6532059 
   39400   -387112.47     305.1646    33.915918     47115.84   -2735.3371    1.6532059 
   39500   -387188.94    294.03416    33.915918     47115.84   -4728.5668    1.6532059 
   39600   -387176.25    296.91662    33.915918     47115.84   -2722.0223    1.6532059 
   39700    -387091.4    302.71651    33.915918     47115.84   -4210.3985    1.6532059 
   39800   -387023.48    304.96702    33.915918     47115.84    -2607.166    1.6532059 
   39900   -387038.18    302.26691    33.915918     47115.84   -3761.1516    1.6532059 
   40000   -387115.64    304.03453    33.915918     47115.84   -4843.0023    1.6532059 
   40100   -387196.21    292.29141    33.915918     47115.84   -4861.7176    1.6532059 
   40200   -387185.71    293.94868    33.915918     47115.84   -5742.6875    1.6532059 
   40300    -387054.9      300.441    33.915918     47115.84   -3252.3634    1.6532059 
   40400   -386955.04    308.62573    33.915918     47115.84   -3559.5114    1.6532059 
   40500   -386989.84    305.08072    33.915918     47115.84   -3290.3501    1.6532059 
   40600    -387118.1    299.15117    33.915918     47115.84    -2921.123    1.6532059 
   40700   -387233.33      293.527    33.915918     47115.84   -2365.1576    1.6532059 
   40800   -387251.57     299.5492    33.915918     47115.84   -4112.0381    1.6532059 
   40900   -387198.18    296.37761    33.915918     47115.84   -3321.8513    1.6532059 
   41000   -387077.79    298.90213    33.915918     47115.84   -4476.8339    1.6532059 
   41100   -386987.55    306.40843    33.915918     47115.84   -2192.1638    1.6532059 
   41200   -387040.76    306.58622    33.915918     47115.84   -4918.7005    1.6532059 
   41300   -387139.82    295.66366    33.915918     47115.84   -4028.2527    1.6532059 
   41400   -387176.43    295.77109    33.915918     47115.84   -4030.8493    1.6532059 
   41500   -387142.86    295.42317    33.915918     47115.84   -2944.1065    1.6532059 
   41600    -387073.1    297.90852    33.915918     47115.84   -4090.7872    1.6532059 
   41700   -387015.87    302.57191    33.915918     47115.84   -3405.5106    1.6532059 
   41800   -387023.25    303.53202    33.915918     47115.84   -4161.4009    1.6532059 
   41900   -387108.69    296.72861    33.915918     47115.84   -4220.2391    1.6532059 
   42000   -387166.48    300.07837    33.915918     47115.84   -3077.0095    1.6532059 
   42100   -387184.08    296.88163    33.915918     47115.84   -4090.6815    1.6532059 
   42200   -387157.17    300.58278    33.915918     47115.84   -2565.2289    1.6532059 
   42300   -387126.11    300.89968    33.915918     47115.84   -4511.5347    1.6532059 
   42400   -387128.76    301.08613    33.915918     47115.84   -4687.8524    1.6532059 
   42500   -387150.97    299.96883    33.915918     47115.84    -1605.932    1.6532059 
   42600    -387165.7    294.72544    33.915918     47115.84   -3725.9522    1.6532059 
   42700   -387133.68    298.06281    33.915918     47115.84   -2727.8284    1.6532059 
   42800   -387065.21     296.4891    33.915918     47115.84    -3683.247    1.6532059 
   42900   -387044.82    303.13029    33.915918     47115.84   -3644.9672    1.6532059 
   43000    -387142.7    293.55544    33.915918     47115.84    -1960.102    1.6532059 
   43100   -387208.35    293.79872    33.915918     47115.84   -4696.9515    1.6532059 
   43200   -387197.77    296.31534    33.915918     47115.84   -3968.4719    1.6532059 
   43300   -387189.63    306.26949    33.915918     47115.84   -3605.4043    1.6532059 
   43400   -387225.39    292.61705    33.915918     47115.84   -4105.8325    1.6532059 
   43500   -387189.02    301.70576    33.915918     47115.84   -2830.9478    1.6532059 
   43600   -387146.43    303.03797    33.915918     47115.84   -4718.9059    1.6532059 
   43700    -387141.2    300.00172    33.915918     47115.84   -2854.2136    1.6532059 
   43800   -387154.55    300.04968    33.915918     47115.84   -3329.1716    1.6532059 
   43900   -387176.25    303.74995    33.915918     47115.84   -3382.4133    1.6532059 
   44000   -387211.51    301.60323    33.915918     47115.84   -3603.7219    1.6532059 
   44100   -387252.26    298.44297    33.915918     47115.84   -2211.8874    1.6532059 
   44200    -387216.4    293.60225    33.915918     47115.84   -4393.2975    1.6532059 
   44300    -387103.6    298.56688    33.915918     47115.84   -3595.2529    1.6532059 
   44400   -387049.31    303.43024    33.915918     47115.84   -4243.0164    1.6532059 
   44500   -387103.64     299.1224    33.915918     47115.84   -2600.7572    1.6532059 
   44600   -387176.28    305.39052    33.915918     47115.84   -4898.9042    1.6532059 
   44700   -387217.11    298.84137    33.915918     47115.84   -2985.7872    1.6532059 
   44800   -387239.25    302.37905    33.915918     47115.84    -3579.685    1.6532059 
   44900   -387220.12    297.59669    33.915918     47115.84   -4802.3601    1.6532059 
   45000   -387169.41    297.70751    33.915918     47115.84   -2283.0957    1.6532059 
   45100   -387114.07    302.56483    33.915918     47115.84   -2953.1676    1.6532059 
   45200   -387082.41    300.27609    33.915918     47115.84   -4029.5796    1.6532059 
   45300   -387104.89     301.9683    33.915918     47115.84   -4410.7519    1.6532059 
   45400   -387179.22    295.61473    33.915918     47115.84   -4592.9453    1.6532059 
   45500   -387188.02    297.66682    33.915918     47115.84   -3605.8387    1.6532059 
   45600    -387134.6    301.05591    33.915918     47115.84   -3503.2639    1.6532059 
   45700    -387105.1    298.06401    33.915918     47115.84   -3472.9845    1.6532059 
   45800   -387065.58    300.53394    33.915918     47115.84   -3642.0996    1.6532059 
   45900   -387046.44    297.56896    33.915918     47115.84   -2607.8338    1.6532059 
   46000   -387119.48    297.08319    33.915918     47115.84   -2628.0249    1.6532059 
   46100   -387199.64    297.30403    33.915918     47115.84   -5555.7267    1.6532059 
   46200   -387184.77    300.62683    33.915918     47115.84   -2968.1039    1.6532059 
   46300   -387147.05     300.2942    33.915918     47115.84    -3281.658    1.6532059 
   46400   -387202.93    295.77197    33.915918     47115.84   -3191.9582    1.6532059 
   46500   -387325.37    290.88999    33.915918     47115.84   -2671.4644    1.6532059 
   46600   -387273.88    295.10976    33.915918     47115.84   -4122.0956    1.6532059 
   46700   -387192.33    301.35509    33.915918     47115.84   -3573.9238    1.6532059 
   46800   -387144.58    306.09161    33.915918     47115.84   -3888.7819    1.6532059 
   46900   -387157.63    299.82091    33.915918     47115.84   -2942.9128    1.6532059 
   47000   -387200.93    295.38655    33.915918     47115.84   -4327.3507    1.6532059 
   47100   -387283.27    294.86746    33.915918     47115.84   -4730.7848    1.6532059 
   47200   -387264.05    293.67825    33.915918     47115.84   -3784.9144    1.6532059 
   47300   -387158.16    306.11513    33.915918     47115.84    -2706.611    1.6532059 
   47400   -387170.54    297.31174    33.915918     47115.84   -4101.6502    1.6532059 
   47500   -387189.81    300.97862    33.915918     47115.84   -2485.4822    1.6532059 
   47600   -387192.27    296.46793    33.915918     47115.84   -4406.3653    1.6532059 
   47700   -387174.92    304.86935    33.915918     47115.84   -4502.3443    1.6532059 
   47800   -387151.81    299.67973    33.915918     47115.84    -4204.779    1.6532059 
   47900   -387107.79    304.44824    33.915918     47115.84   -5428.4667    1.6532059 
   48000   -387101.01    303.12521    33.915918     47115.84   -3279.6182    1.6532059 
   48100   -387185.95     296.5583    33.915918     47115.84   -4545.5072    1.6532059 
   48200   -387188.91    297.86697    33.915918     47115.84   -5074.7415    1.6532059 
   48300   -387091.44    303.75255    33.915918     47115.84   -1955.7576    1.6532059 
   48400   -387028.24    303.92684    33.915918     47115.84   -3769.7091    1.6532059 
   48500   -387078.79    300.70431    33.915918     47115.84   -3864.7276    1.6532059 
   48600   -387142.66    308.77934    33.915918     47115.84   -4176.9849    1.6532059 
   48700   -387183.03    296.98552    33.915918     47115.84   -3453.7977    1.6532059 
   48800   -387201.92    301.52645    33.915918     47115.84   -3465.2751    1.6532059 
   48900   -387212.74    293.92182    33.915918     47115.84   -4196.8913    1.6532059 
   49000   -387150.53    302.84825    33.915918     47115.84   -4859.5855    1.6532059 
   49100   -387070.12    304.67092    33.915918     47115.84   -2966.3462    1.6532059 
   49200   -387066.43    307.74378    33.915918     47115.84   -3108.7817    1.6532059 
   49300   -387136.54    296.82359    33.915918     47115.84   -3865.7112    1.6532059 
   49400   -387249.84    297.23874    33.915918     47115.84   -4789.0877    1.6532059 
   49500   -387236.78     296.0269    33.915918     47115.84   -4788.2473    1.6532059 
   49600   -387180.68    297.13416    33.915918     47115.84   -4039.1498    1.6532059 
   49700   -387100.26      301.936    33.915918     47115.84   -4455.5975    1.6532059 
   49800   -387109.93    300.48155    33.915918     47115.84   -2981.6396    1.6532059 
   49900   -387126.42    300.40339    33.915918     47115.84   -6317.6936    1.6532059 
   50000   -387149.85    299.82426    33.915918     47115.84   -4373.5623    1.6532059 
   50100   -387269.64    293.66343    33.915918     47115.84   -3178.5017    1.6532059 
   50200   -387287.77    296.15517    33.915918     47115.84   -4965.5982    1.6532059 
   50300   -387227.25    291.72081    33.915918     47115.84   -3624.3609    1.6532059 
   50400   -387173.04    296.31334    33.915918     47115.84   -3409.9653    1.6532059 
   50500   -387141.24    298.45564    33.915918     47115.84    -3806.707    1.6532059 
   50600   -387084.81    305.35357    33.915918     47115.84   -4452.1518    1.6532059 
   50700   -386967.96      304.844    33.915918     47115.84   -3682.6346    1.6532059 
   50800   -386978.71    309.53721    33.915918     47115.84   -4088.3484    1.6532059 
   50900    -387056.1    299.51854    33.915918     47115.84   -4803.1991    1.6532059 
   51000   -387101.48    298.73286    33.915918     47115.84   -3312.5951    1.6532059 
   51100    -387153.3    296.96936    33.915918     47115.84    -5339.404    1.6532059 
   51200   -387183.41    298.43766    33.915918     47115.84   -3670.0902    1.6532059 
   51300   -387176.96    298.53629    33.915918     47115.84   -5095.4125    1.6532059 
   51400   -387088.83    308.54801    33.915918     47115.84   -4773.1712    1.6532059 
   51500   -387053.96    310.12253    33.915918     47115.84   -2802.1141    1.6532059 
   51600   -387156.97    304.93468    33.915918     47115.84   -4408.1514    1.6532059 
   51700   -387200.68    298.56452    33.915918     47115.84   -2419.3063    1.6532059 
   51800   -387194.11    299.30253    33.915918     47115.84   -5133.4524    1.6532059 
   51900      -387180    305.29929    33.915918     47115.84   -4572.1738    1.6532059 
   52000    -387176.7    301.93453    33.915918     47115.84   -4032.8827    1.6532059 
   52100   -387223.14    296.89128    33.915918     47115.84   -4730.8201    1.6532059 
   52200   -387243.01    291.58938    33.915918     47115.84   -3567.1149    1.6532059 
   52300    -387158.9    302.42438    33.915918     47115.84   -4339.6199    1.6532059 
   52400   -387096.59     299.6908    33.915918     47115.84   -5413.9704    1.6532059 
   52500    -387135.2    308.24945    33.915918     47115.84   -4504.6423    1.6532059 
   52600   -387182.62    300.58864    33.915918     47115.84   -4895.0079    1.6532059 
   52700   -387170.05    303.94237    33.915918     47115.84   -3825.5601    1.6532059 
   52800   -387147.57    306.21228    33.915918     47115.84   -4155.5148    1.6532059 
   52900   -387209.31     297.7421    33.915918     47115.84   -4207.2531    1.6532059 
   53000   -387309.13    293.65473    33.915918     47115.84   -2059.4406    1.6532059 
   53100   -387290.83    294.41054    33.915918     47115.84   -4793.3111    1.6532059 
   53200   -387205.93    306.02241    33.915918     47115.84   -3590.8904    1.6532059 
   53300   -387204.04    298.81316    33.915918     47115.84    -2821.593    1.6532059 
   53400   -387185.34    300.38257    33.915918     47115.84   -5073.4247    1.6532059 
   53500   -387169.73    299.67224    33.915918     47115.84   -4273.9258    1.6532059 
   53600   -387149.56    304.52277    33.915918     47115.84    -4584.969    1.6532059 
   53700   -387157.88    298.15119    33.915918     47115.84   -2581.6741    1.6532059 
   53800   -387210.51    298.22516    33.915918     47115.84   -5271.2006    1.6532059 
   53900   -387300.82    295.47961    33.915918     47115.84   -4008.5598    1.6532059 
   54000   -387313.51    292.30997    33.915918     47115.84   -4004.3152    1.6532059 
   54100   -387248.35    297.60848    33.915918     47115.84   -3130.4489    1.6532059 
   54200   -387225.54    297.51768    33.915918     47115.84   -4882.3612    1.6532059 
   54300   -387198.41    288.61012    33.915918     47115.84   -3779.1162    1.6532059 
   54400   -387173.73    301.73197    33.915918     47115.84    -4799.064    1.6532059 
   54500   -387221.42    300.64005    33.915918     47115.84   -4372.4748    1.6532059 
   54600   -387327.91    285.73224    33.915918     47115.84   -5483.2227    1.6532059 
   54700   -387293.11    291.82126    33.915918     47115.84    -4867.619    1.6532059 
   54800   -387233.67    300.01185    33.915918     47115.84   -5854.5661    1.6532059 
   54900   -387219.81    302.18032    33.915918     47115.84   -3888.5128    1.6532059 
   55000   -387244.38    296.92885    33.915918     47115.84   -3074.9155    1.6532059 
   55100   -387301.95    292.67451    33.915918     47115.84   -3541.7837    1.6532059 
   55200      -387292    298.84836    33.915918     47115.84   -6486.7975    1.6532059 
   55300   -387258.85    296.82057    33.915918     47115.84   -3638.7747    1.6532059 
   55400   -387194.91    301.30851    33.915918     47115.84   -1937.1653    1.6532059 
   55500    -387195.6     299.5612    33.915918     47115.84   -4400.2334    1.6532059 
   55600   -387241.43    298.14154    33.915918     47115.84   -1789.8933    1.6532059 
   55700   -387212.18    301.30904    33.915918     47115.84   -4268.0681    1.6532059 
   55800   -387124.35    306.36051    33.915918     47115.84   -3353.2029    1.6532059 
   55900   -387118.85    300.20707    33.915918     47115.84   -4201.3759    1.6532059 
   56000   -387188.15    303.60528    33.915918     47115.84   -3648.8783    1.6532059 
   56100   -387276.46    295.68842    33.915918     47115.84   -2227.0512    1.6532059 
   56200   -387252.03    299.75193    33.915918     47115.84   -3927.5385    1.6532059 
   56300   -387184.05    302.16933    33.915918     47115.84   -2641.4793    1.6532059 
   56400   -387152.89    304.34248    33.915918     47115.84   -4480.8648    1.6532059 
   56500   -387178.73    300.27727    33.915918     47115.84   -4089.4919    1.6532059 
   56600   -387220.22     299.8686    33.915918     47115.84   -4136.2017    1.6532059 
   56700    -387254.4    294.38301    33.915918     47115.84    -3181.611    1.6532059 
   56800   -387206.45    303.18916    33.915918     47115.84   -2993.5303    1.6532059 
   56900   -387189.37    303.76047    33.915918     47115.84   -4819.1094    1.6532059 
   57000   -387200.71    298.77412    33.915918     47115.84   -2553.4898    1.6532059 
   57100   -387198.61     300.2005    33.915918     47115.84   -4544.1046    1.6532059 
   57200   -387184.88    302.04803    33.915918     47115.84    -1544.582    1.6532059 
   57300   -387164.84    299.19141    33.915918     47115.84   -4068.5635    1.6532059 
   57400   -387116.48    304.54022    33.915918     47115.84   -2439.9383    1.6532059 
   57500   -387116.58    303.38754    33.915918     47115.84   -2371.1693    1.6532059 
   57600   -387157.73    297.54441    33.915918     47115.84    -4593.421    1.6532059 
   57700    -387250.9    298.99642    33.915918     47115.84    -3462.674    1.6532059 
   57800    -387298.6    292.94395    33.915918     47115.84   -4215.3555    1.6532059 
   57900   -387274.23    294.32923    33.915918     47115.84   -3293.6206    1.6532059 
   58000   -387181.76    302.86642    33.915918     47115.84   -2700.2067    1.6532059 
   58100    -387154.1    297.46173    33.915918     47115.84   -2106.1074    1.6532059 
   58200   -387149.05    304.67749    33.915918     47115.84   -4512.8107    1.6532059 
   58300   -387177.36    304.30821    33.915918     47115.84   -3749.9997    1.6532059 
   58400    -387180.7    305.64362    33.915918     47115.84    -2967.782    1.6532059 
   58500   -387215.13    303.15361    33.915918     47115.84   -2995.1486    1.6532059 
   58600   -387279.14    299.05628    33.915918     47115.84   -4479.9717    1.6532059 
   58700   -387269.43    296.99314    33.915918     47115.84   -1557.9138    1.6532059 
   58800    -387176.6    300.42706    33.915918     47115.84    -4177.777    1.6532059 
   58900   -387118.91    305.27674    33.915918     47115.84   -2903.6889    1.6532059 
   59000   -387163.24    301.96324    33.915918     47115.84   -3258.5885    1.6532059 
   59100   -387203.65    298.91679    33.915918     47115.84   -2464.3211    1.6532059 
   59200   -387200.59    303.27658    33.915918     47115.84   -4241.9255    1.6532059 
   59300   -387204.09    303.27726    33.915918     47115.84   -4068.1479    1.6532059 
   59400    -387248.4    296.92594    33.915918     47115.84   -2758.1722    1.6532059 
   59500   -387308.22    296.68628    33.915918     47115.84   -3189.0123    1.6532059 
   59600   -387291.36    296.95002    33.915918     47115.84   -3720.6223    1.6532059 
   59700   -387197.14    304.93295    33.915918     47115.84   -3270.6306    1.6532059 
   59800   -387158.97    296.42242    33.915918     47115.84   -2329.3918    1.6532059 
   59900   -387116.46    302.09836    33.915918     47115.84   -2632.4902    1.6532059 
   60000   -387091.45    309.22109    33.915918     47115.84   -2964.2126    1.6532059 
   60100   -387202.32    300.02367    33.915918     47115.84   -2857.2603    1.6532059 
   60200   -387284.91    302.86351    33.915918     47115.84   -3035.4714    1.6532059 
   60300   -387325.82    299.21245    33.915918     47115.84   -3626.9129    1.6532059 
   60400   -387267.58    296.96643    33.915918     47115.84   -4177.7233    1.6532059 
   60500   -387177.05    302.68709    33.915918     47115.84   -2640.3023    1.6532059 
   60600   -387183.36    301.92263    33.915918     47115.84   -5523.7844    1.6532059 
   60700   -387238.52    301.28165    33.915918     47115.84   -2618.3553    1.6532059 
   60800   -387250.61    298.73459    33.915918     47115.84   -4267.5557    1.6532059 
   60900   -387161.56    300.21848    33.915918     47115.84   -3598.8404    1.6532059 
   61000   -387076.33    307.75854    33.915918     47115.84   -4335.6169    1.6532059 
   61100   -387117.96    306.39519    33.915918     47115.84   -4480.9718    1.6532059 
   61200   -387199.33    298.19415    33.915918     47115.84   -3357.6078    1.6532059 
   61300   -387228.88    300.48302    33.915918     47115.84   -3266.7964    1.6532059 
   61400   -387214.94    303.99671    33.915918     47115.84   -2579.8028    1.6532059 
   61500   -387179.58    303.49673    33.915918     47115.84   -1871.1566    1.6532059 
   61600   -387081.74    306.39682    33.915918     47115.84   -4403.3716    1.6532059 
   61700   -387070.07    307.42264    33.915918     47115.84    -4647.907    1.6532059 
   61800    -387168.8    303.74859    33.915918     47115.84   -3892.9649    1.6532059 
   61900   -387218.23    294.39242    33.915918     47115.84   -4288.8678    1.6532059 
   62000   -387235.39    300.82569    33.915918     47115.84   -3261.2741    1.6532059 
   62100   -387268.67    300.41569    33.915918     47115.84   -2981.5309    1.6532059 
   62200   -387326.95    301.65442    33.915918     47115.84   -3743.1965    1.6532059 
   62300   -387345.21    297.26803    33.915918     47115.84   -4426.2687    1.6532059 
   62400   -387249.03    301.91159    33.915918     47115.84   -3792.3801    1.6532059 
   62500   -387189.17    302.34227    33.915918     47115.84   -5016.6714    1.6532059 
   62600   -387189.94    303.17357    33.915918     47115.84    -5157.014    1.6532059 
   62700      -387246    298.66203    33.915918     47115.84   -3506.3168    1.6532059 
   62800   -387348.89    296.86076    33.915918     47115.84   -4550.5061    1.6532059 
   62900   -387401.56    291.39537    33.915918     47115.84   -2382.7051    1.6532059 
   63000   -387289.61    300.59952    33.915918     47115.84   -2907.8302    1.6532059 
   63100   -387202.13    301.41805    33.915918     47115.84    -4134.749    1.6532059 
   63200   -387181.09    298.88364    33.915918     47115.84   -4411.9113    1.6532059 
   63300   -387160.64    308.06121    33.915918     47115.84   -4179.6908    1.6532059 
   63400   -387206.21    299.91025    33.915918     47115.84   -1532.6867    1.6532059 
   63500   -387312.81    292.85381    33.915918     47115.84   -3007.5819    1.6532059 
   63600   -387326.31    295.58304    33.915918     47115.84   -2361.8113    1.6532059 
   63700   -387279.25    304.52811    33.915918     47115.84   -4622.8847    1.6532059 
   63800   -387206.59    301.92301    33.915918     47115.84   -2776.1908    1.6532059 
   63900   -387187.82     302.1022    33.915918     47115.84   -2381.6023    1.6532059 
   64000   -387221.69    303.50586    33.915918     47115.84   -5341.7051    1.6532059 
   64100   -387255.76    295.93236    33.915918     47115.84   -2696.1233    1.6532059 
   64200   -387260.91    299.87448    33.915918     47115.84   -4393.7304    1.6532059 
   64300   -387251.59    303.35885    33.915918     47115.84   -2894.0548    1.6532059 
   64400   -387271.89    295.84591    33.915918     47115.84   -2557.0377    1.6532059 
   64500   -387278.89    298.40996    33.915918     47115.84   -4269.0278    1.6532059 
   64600   -387267.69    293.09152    33.915918     47115.84     -2098.85    1.6532059 
   64700   -387173.54    301.11721    33.915918     47115.84   -5253.6571    1.6532059 
   64800   -387129.91    301.32781    33.915918     47115.84   -1764.1553    1.6532059 
   64900   -387165.54     300.0858    33.915918     47115.84   -4431.2764    1.6532059 
   65000   -387249.24    295.26439    33.915918     47115.84   -3718.8591    1.6532059 
   65100   -387252.61    295.76705    33.915918     47115.84   -2485.8269    1.6532059 
   65200    -387233.2    299.90855    33.915918     47115.84    -4448.199    1.6532059 
   65300   -387211.96      292.105    33.915918     47115.84   -3550.2163    1.6532059 
   65400   -387139.42    305.89037    33.915918     47115.84   -2959.8237    1.6532059 
   65500   -387069.18    306.43349    33.915918     47115.84   -4404.7453    1.6532059 
   65600   -387115.22    307.27283    33.915918     47115.84   -2575.2007    1.6532059 
   65700   -387231.52    302.42662    33.915918     47115.84   -4869.8649    1.6532059 
   65800   -387256.84    297.76943    33.915918     47115.84   -4212.6432    1.6532059 
   65900    -387228.4    301.55375    33.915918     47115.84   -3998.2219    1.6532059 
   66000   -387205.76    302.82792    33.915918     47115.84   -2492.9847    1.6532059 
   66100   -387288.62    303.01877    33.915918     47115.84   -3656.7846    1.6532059 
   66200   -387346.36     299.1136    33.915918     47115.84   -3871.1009    1.6532059 
   66300   -387305.46    297.32103    33.915918     47115.84   -3035.1432    1.6532059 
   66400   -387273.14    296.93402    33.915918     47115.84    -4989.133    1.6532059 
   66500   -387261.62    305.72477    33.915918     47115.84   -2029.1142    1.6532059 
   66600   -387337.63    297.19621    33.915918     47115.84   -3807.9037    1.6532059 
   66700   -387380.83    290.68645    33.915918     47115.84   -2165.5458    1.6532059 
   66800   -387294.76    297.98455    33.915918     47115.84   -2829.3687    1.6532059 
   66900   -387230.96    295.43772    33.915918     47115.84   -3503.4597    1.6532059 
   67000   -387209.75    306.76102    33.915918     47115.84   -4447.6444    1.6532059 
   67100    -387254.4    296.72489    33.915918     47115.84   -4302.8333    1.6532059 
   67200   -387349.19     298.6893    33.915918     47115.84   -3769.3633    1.6532059 
   67300   -387412.82    295.17926    33.915918     47115.84   -4149.9672    1.6532059 
   67400   -387363.17    297.68338    33.915918     47115.84    -4305.467    1.6532059 
   67500   -387324.21     300.9171    33.915918     47115.84   -1889.3905    1.6532059 
   67600   -387298.34    300.10219    33.915918     47115.84   -3779.4501    1.6532059 
   67700   -387280.72    296.61711    33.915918     47115.84    -2489.711    1.6532059 
   67800    -387220.4    298.68456    33.915918     47115.84   -3533.7227    1.6532059 
   67900   -387121.56    304.22828    33.915918     47115.84   -4006.2258    1.6532059 
   68000   -387125.65    308.09793    33.915918     47115.84   -2907.9171    1.6532059 
   68100   -387232.65    301.31845    33.915918     47115.84   -2009.2811    1.6532059 
   68200   -387285.53    301.72816    33.915918     47115.84   -4796.9878    1.6532059 
   68300    -387310.3    294.22019    33.915918     47115.84   -3622.2506    1.6532059 
   68400   -387284.84    303.68183    33.915918     47115.84   -3732.9447    1.6532059 
   68500   -387234.27    299.64206    33.915918     47115.84    -2634.735    1.6532059 
   68600   -387168.93    306.31524    33.915918     47115.84   -3548.4677    1.6532059 
   68700   -387158.34    309.74779    33.915918     47115.84   -5169.9188    1.6532059 
   68800   -387285.15    295.86111    33.915918     47115.84    -3708.317    1.6532059 
   68900   -387308.74    295.40531    33.915918     47115.84   -4226.0036    1.6532059 
   69000   -387264.26    299.17946    33.915918     47115.84   -3546.9592    1.6532059 
   69100   -387190.54     304.4701    33.915918     47115.84    -4382.801    1.6532059 
   69200    -387213.1    300.27493    33.915918     47115.84    -1290.769    1.6532059 
   69300   -387307.32    297.15498    33.915918     47115.84   -4408.9112    1.6532059 
   69400   -387337.88    295.07391    33.915918     47115.84   -2249.6248    1.6532059 
   69500   -387301.56    300.48361    33.915918     47115.84   -2999.7081    1.6532059 
   69600   -387239.33    302.96167    33.915918     47115.84   -4214.0889    1.6532059 
   69700   -387230.51    303.94182    33.915918     47115.84   -1511.8183    1.6532059 
   69800    -387306.1     297.5573    33.915918     47115.84   -4536.0477    1.6532059 
   69900   -387321.02     292.8621    33.915918     47115.84   -5543.3187    1.6532059 
   70000   -387217.17    301.75917    33.915918     47115.84   -4268.2307    1.6532059 
   70100   -387161.41    304.87764    33.915918     47115.84   -354.60948    1.6532059 
   70200   -387233.12    299.65208    33.915918     47115.84   -3271.4387    1.6532059 
   70300   -387300.87    296.58485    33.915918     47115.84   -4149.2223    1.6532059 
   70400   -387275.26    302.52682    33.915918     47115.84    -3477.557    1.6532059 
   70500   -387230.03    308.61637    33.915918     47115.84   -3589.3748    1.6532059 
   70600   -387186.66    301.58497    33.915918     47115.84   -4975.5337    1.6532059 
   70700   -387130.49    304.96329    33.915918     47115.84   -3472.2688    1.6532059 
   70800   -387208.25    299.58939    33.915918     47115.84   -2721.3412    1.6532059 
   70900   -387274.52    294.65157    33.915918     47115.84   -5074.6635    1.6532059 
   71000   -387288.13    300.67135    33.915918     47115.84   -3834.6955    1.6532059 
   71100   -387340.97    297.62867    33.915918     47115.84   -3749.8353    1.6532059 
   71200   -387422.84    296.83976    33.915918     47115.84   -4044.2162    1.6532059 
   71300    -387463.4    300.06206    33.915918     47115.84   -2536.9566    1.6532059 
[...]
 2356400   -390917.09    294.36493    36.022242    56450.583   -29.482805    1.3798296 
 2356500   -390880.34    300.79465    36.019252    56436.527     417.2097    1.3801732 
 2356600    -390841.1    304.28596    36.029756    56485.919   -386.09238    1.3789664 
 2356700   -390843.88    307.65807    35.989716    56297.807    1406.1224     1.383574 
 2356800   -390956.96    299.89579    36.005066    56369.871   -636.46192    1.3818052 
 2356900   -390992.31     293.9067    36.030179    56487.905   -18.055068    1.3789179 
 2357000    -390918.9    300.13049    36.021472    56446.965   -724.38326     1.379918 
 2357100   -390853.86    301.78032    35.987981    56289.664   -134.25011    1.3837742 
 2357200   -390858.17    305.73598    35.965843    56185.852    691.76859    1.3863309 
 2357300   -390912.33    294.36464    36.010683     56396.26    963.22881    1.3811587 
 2357400   -390953.14    293.57904    36.072971    56689.412   -1601.8886    1.3740164 
 2357500   -390999.56    293.53451    36.028094    56478.102     1657.336    1.3791572 
 2357600   -390992.27    296.94826    36.025435    56465.596   -655.20289    1.3794627 
 2357700   -390935.12    297.55706     35.99358    56315.941    57.330241    1.3831285 
 2357800   -390859.74    304.24848    35.958639    56152.093    1277.4353    1.3871644 
 2357900   -390868.61    300.99802    35.990439    56301.199   -1346.0089    1.3834907 
 2358000   -390976.01    301.65889     36.00122    56351.809    533.37105    1.3822481 
 2358100   -391008.15     296.6952    36.017502    56428.302   -406.91372    1.3803744 
 2358200   -390956.13    299.79365    35.986825    56284.244   -864.38038    1.3839074 
 2358300    -390893.5    304.03636    35.944258     56084.75    1405.8796      1.38883 
 2358400   -390881.65    302.68972    35.993362    56314.921    393.57865    1.3831536 
 2358500   -390951.08    296.79654     36.05427    56601.293    -631.9995    1.3761555 
 2358600   -391014.72     289.7341    36.058975    56623.452   -648.69633     1.375617 
 2358700   -390922.49    292.29533     36.03715      56520.7   -389.67975    1.3781178 
 2358800   -390864.79     303.9291    35.950207    56112.603   -330.36955    1.3881406 
 2358900    -390893.5    300.89065    35.890246    55832.301    2526.7038    1.3951097 
 2359000   -390951.75    294.35103    35.910854     55928.53   -1219.1038    1.3927093 
 2359100   -390966.86     298.1793      35.9172    55958.186    965.65867    1.3919712 
 2359200   -390851.68    303.85674    35.958295    56150.481    10.159326    1.3872042 
 2359300   -390796.28      299.253    35.969548    56203.214    284.44802    1.3859027 
 2359400   -390791.72    308.46834    35.966647     56189.62   -58.471831    1.3862379 
 2359500   -390876.72    304.40596    35.976596    56236.261    789.28913    1.3850882 
 2359600   -390949.13    291.67176    36.029149    56483.062   -509.46188    1.3790361 
 2359700   -390919.35    301.22925    36.031198    56492.702   -1342.6596    1.3788008 
 2359800   -390899.42    302.46294    35.966736    56190.034    1806.0435    1.3862277 
 2359900   -390880.72    299.88145    35.936718    56049.462    907.61277    1.3897044 
 2360000   -390913.58    299.57047    35.951915    56120.601   -307.39886    1.3879428 
 2360100   -390950.28    298.48843    35.986807    56284.155    209.70317    1.3839096 
 2360200   -390913.11    303.37413    35.992723    56311.921   -951.36739    1.3832272 
 2360300   -390840.42    303.81305    35.976567    56236.124    869.73264    1.3850916 
 2360400   -390772.25    299.25203    35.988602     56292.58   -257.76666    1.3837025 
 2360500   -390744.43    306.80743    36.004891    56369.051   -275.50109    1.3818253 
 2360600   -390895.93    298.28378    36.022124     56450.03    812.11129    1.3798431 
 2360700   -390928.21    295.09453    36.059228    56624.648    300.89437    1.3755879 
 2360800   -390910.59    302.17591    36.048651    56574.832   -870.65063    1.3767992 
 2360900   -390916.22    302.94212    36.040133    56534.735    1134.4595    1.3777757 
 2361000   -390945.55    299.13192    36.041442    56540.898   -476.61052    1.3776255 
 2361100   -390990.67    292.24514    36.057795    56617.896   -116.84675     1.375752 
 2361200   -390938.22    302.79722    36.054055    56600.278    1018.9051    1.3761802 
 2361300   -390857.33    299.43768    36.006668    56377.399   -1228.7806    1.3816207 
 2361400   -390874.97    299.18541    35.968735    56199.405    75.047732    1.3859966 
 2361500   -390922.97    296.22816    35.999687    56344.615    501.25686    1.3824246 
 2361600   -390966.86    291.58982    36.070559    56678.044   -1976.0888     1.374292 
 2361700   -390978.68    300.31989    36.056846    56613.425    496.91389    1.3758606 
 2361800   -390911.96    299.24725    36.024948    56463.307    -149.7913    1.3795186 
 2361900   -390847.34    302.49314    36.044112    56553.465   -406.22052    1.3773194 
 2362000   -390858.14    300.54594    36.048077    56572.128    38.740768     1.376865 
 2362100   -390951.38    298.15863     35.99839    56338.521    515.00217    1.3825742 
 2362200   -390986.85    298.47064    35.964688    56180.438    245.57458    1.3864645 
 2362300   -390902.19    297.57764    36.026483    56470.526    1093.6249    1.3793423 
 2362400   -390801.38     307.0182    36.079142    56718.513   -2353.9003    1.3733114 
 2362500   -390848.79    300.54621    36.074195    56695.183     971.3197    1.3738766 
 2362600   -390902.55    298.74092     36.08245    56734.115   -234.55772    1.3729338 
 2362700    -390925.3    293.38911    36.065635    56654.836   -791.93128     1.374855 
 2362800   -390852.84    307.68114    36.034467    56508.076     423.7969    1.3784257 
 2362900   -390796.34    305.61996    36.006661    56377.364    12.162149    1.3816216 
 2363000    -390860.2    296.64331    36.023483     56456.42   -534.63588    1.3796869 
 2363100   -390955.79    296.74753    35.998441    56338.763    526.06586    1.3825682 
 2363200   -390940.98    297.39414    35.965443    56183.977     245.5605    1.3863772 
 2363300   -390899.12    300.31362    35.941274    56070.782   -561.71678     1.389176 
 2363400   -390819.28    304.45324    35.912524    55936.336    558.18152    1.3925149 
 2363500   -390747.84    312.75412    35.988912    56294.033    1235.6331    1.3836668 
 2363600   -390865.61    296.73734    36.045009    56557.687   -1613.5612    1.3772166 
 2363700   -390926.89    297.09651    36.014187    56412.722   -390.44878    1.3807556 
 2363800   -390888.71    302.97699    35.967171    56192.073    417.94551    1.3861774 
 2363900      -390824    299.46001    35.965398    56183.766   -891.01727    1.3863824 
 2364000   -390779.93    301.22082    35.986489    56282.666    350.55778    1.3839462 
 2364100   -390811.03    304.05885      36.0345    56508.235    74.202296    1.3784218 
 2364200   -390931.55    297.93948    36.056375    56611.206   -1133.5371    1.3759146 
 2364300   -390917.14    298.17163     36.01656    56423.874    486.11737    1.3804827 
 2364400      -390851    301.33704    35.999401    56343.271    361.79287    1.3824576 
 2364500   -390803.47    298.69895    36.010193    56393.956   -632.30931    1.3812151 
 2364600   -390822.72    303.49755    36.034556    56508.498   -730.85181    1.3784154 
 2364700   -390941.55    297.28055    36.023498    56456.488    -183.5928    1.3796852 
 2364800   -390993.38    294.26573    36.026675    56471.427    586.56997    1.3793203 
 2364900   -390925.08    296.14756    36.078181     56713.98    -923.9048    1.3734212 
 2365000   -390852.22    294.99091    36.082561    56734.637     -1129.27    1.3729211 
 2365100   -390802.07    300.87481    36.049126     56577.07   -2.4636936    1.3767447 
 2365200   -390804.55    306.15958    36.036535    56517.808   -1468.6656    1.3781883 
 2365300   -390902.72    304.38071    35.969682    56203.845    922.47891    1.3858871 
 2365400   -390951.75    298.73046     35.94238    56075.959    1114.2671    1.3890477 
 2365500   -390936.28    296.91746    35.934174    56037.559    471.92293    1.3899996 
 2365600   -390871.53    300.24056    35.954141    56131.027    907.54772     1.387685 
 2365700   -390839.81    299.82885    35.987725    56288.465   -1557.3921    1.3838037 
 2365800    -390848.7    300.75061    35.985492    56277.988   -426.50715    1.3840613 
 2365900   -390864.54    302.82347    35.935438    56043.474    764.04738    1.3898529 
 2366000   -390938.85    301.60829     35.87159    55745.281    -199.1086    1.3972875 
 2366100   -391059.01    294.17006    35.859247    55687.755    366.32145    1.3987309 
 2366200   -391009.48     291.4865    35.879461    55781.985   -211.36269    1.3963681 
 2366300   -390919.84    293.55347    35.907654    55913.584   -1051.7851    1.3930816 
 2366400   -390892.18    299.69286    35.911711    55932.538    115.07625    1.3926095 
 2366500   -390884.71    294.99653    35.923453    55987.417    120.24819    1.3912444 
 2366600   -390806.54    302.71945    35.937714    56054.123   -1500.1066    1.3895888 
 2366700   -390724.84    309.68773    35.990376    56300.907    738.51486    1.3834978 
 2366800   -390767.68    304.03197    35.997977    56336.582   -487.02735    1.3826217 
 2366900   -390827.28    300.81558    35.988409    56291.673   -187.51973    1.3837248 
 2367000    -390857.7    297.61545    35.970389     56207.16    677.85835    1.3858053 
 2367100   -390880.55     295.0903    35.916908    55956.824   -390.89635    1.3920051 
 2367200   -390921.48    297.93958    35.879799    55783.558    687.12847    1.3963287 
 2367300    -391012.7    296.30461    35.892293    55841.855    409.57606     1.394871 
 2367400   -391026.51    285.01642    35.954433    56132.395   -1243.4097    1.3876512 
 2367500   -390908.67    302.18961    35.990588    56301.898   -936.46971    1.3834735 
 2367600   -390891.01    306.17312    35.986284    56281.702   -201.47297    1.3839699 
 2367700   -390916.08    298.60725    35.982179    56262.444    31.446562    1.3844437 
 2367800   -390939.38    299.64247    35.984249    56272.154    694.03358    1.3842048 
 2367900   -390941.89    298.98721    35.988241    56290.885   -370.80653    1.3837442 
 2368000   -390889.14    296.84901    36.038568    56527.374   -227.10811    1.3779551 
 2368100   -390793.16    298.94018    36.060659    56631.388   -422.64316    1.3754242 
 2368200   -390763.28    306.42281    36.072138    56685.488   -276.37625    1.3741115 
 2368300   -390819.87    299.48891    36.028669    56480.803    282.45932    1.3790913 
 2368400   -390908.01    303.98433    35.964345    56178.828    908.76809    1.3865042 
 2368500   -390935.58     296.5332    35.973954     56223.87   -355.97071    1.3853935 
 2368600   -390941.24    291.88326    35.968408     56197.87   -1356.1929    1.3860344 
 2368700   -390892.54    309.71396    35.933021    56032.165     724.5206    1.3901334 
 2368800   -390830.14    301.97418    35.941568    56072.158    63.683265    1.3891419 
 2368900   -390738.11    305.34507    35.990972    56303.703   -868.95383    1.3834291 
 2369000    -390776.6    311.93409     35.95719    56145.305     444.6266    1.3873321 
 2369100   -390916.04     297.2204    35.920898    55975.472   -73.117753    1.3915413 
 2369200   -390920.96    301.35007    35.989995    56299.118    482.10704    1.3835418 
 2369300   -390889.82    301.77646    36.032147    56497.164   -1191.0197    1.3786919 
 2369400   -390846.25    303.06538    35.981188    56257.796    711.63775     1.384558 
 2369500   -390862.71     301.7029    35.992636    56311.513    -11.21334    1.3832373 
 2369600   -390957.12    298.52151    36.021039    56444.927   -1344.7462    1.3799678 
 2369700   -390968.22    294.63245    36.005958    56374.062     706.3315    1.3817025 
 2369800   -390886.87    293.37658    36.031578    56494.487   -361.24506    1.3787572 
 2369900   -390827.43    303.39785    36.049771    56580.104    305.04019    1.3766709 
 2370000   -390851.14    304.53301    36.026154    56468.978    266.74345    1.3793801 
 2370100   -390909.19    295.56419    36.028004     56477.68    772.11816    1.3791676 
 2370200   -390912.61    298.74825     36.02962    56485.276   -1635.9632    1.3789821 
 2370300   -390858.03    298.10096    35.984316     56272.47     711.5809     1.384197 
 2370400   -390774.86    302.51925    35.978055    56243.101    753.97381    1.3849198 
 2370500   -390797.37    302.30367    36.012655    56405.524   -755.07215    1.3809318 
 2370600   -390876.92    298.16106    35.996052    56327.548    595.43102    1.3828435 
 2370700   -390952.49    298.56192    35.960511    56160.865   -514.38455    1.3869477 
 2370800   -391061.81    294.27466    35.965827    56185.774    542.18188    1.3863328 
 2370900   -391087.75    294.00147    35.991375    56305.595    -655.2844    1.3833826 
 2371000   -390983.71    297.75812    35.984831    56274.887    366.53967    1.3841375 
 2371100   -390925.22    291.28172    35.966126    56187.177    690.93477    1.3862982 
 2371200   -390863.63     298.5645    36.005022    56369.664    -508.0274    1.3818103 
 2371300   -390850.31    301.04858    36.021853    56448.758   -196.32278    1.3798742 
 2371400   -390918.77    295.62149    35.990282    56300.462   -1630.9721    1.3835088 
 2371500   -390990.58    296.49228    35.960799    56162.213    376.27472    1.3869144 
 2371600   -391035.72     293.5782     35.95685    56143.714    720.47182    1.3873714 
 2371700   -390985.89    293.50859     36.01511    56417.062   -1365.4926    1.3806494 
 2371800   -390864.21    298.56267    35.987008      56285.1   -323.71212    1.3838864 
 2371900   -390819.07     306.6663    35.977551    56240.738   -50.232654     1.384978 
 2372000   -390829.22    305.48358    36.007059    56379.235   -1128.1871    1.3815757 
 2372100   -390902.68    300.68962     35.99226    56309.745    1501.8853    1.3832807 
 2372200   -390947.13     299.0203    35.981003    56256.929   -337.21806    1.3845794 
 2372300   -390944.32    295.18351    36.014696    56415.117   -190.56265     1.380697 
 2372400   -390828.36    299.92559    35.999115    56341.929   -199.08176    1.3824905 
 2372500   -390766.88     301.4976    35.986871    56284.456    -226.0961    1.3839022 
 2372600   -390791.85    301.07867    36.022697    56452.722     387.0047    1.3797773 
 2372700   -390854.11    296.84526    36.043807    56552.027    1411.4786    1.3773544 
 2372800   -390922.52    297.98306    36.054888    56604.201   -1626.4333    1.3760849 
 2372900   -390919.02    293.03605    36.000366    56347.802    1200.4542    1.3823464 
 2373000   -390785.86    304.00168     35.99876     56340.26    1488.5456    1.3825315 
 2373100   -390797.88    304.81324    36.037526    56522.469   -1628.2431    1.3780747 
 2373200   -390870.78    301.12132    35.997663    56335.111    1113.5473    1.3826579 
 2373300   -390912.72     294.6307    36.000764    56349.668    57.746042    1.3823007 
 2373400   -390919.21    298.52783    36.026193    56469.162    235.38609    1.3793756 
 2373500   -390936.01    299.72142    36.065928    56656.217   -695.53876    1.3748215 
 2373600   -390961.49    295.72908    36.042462      56545.7    475.14986    1.3775085 
 2373700   -390920.77    300.38875    36.031117    56492.318   -131.21685    1.3788102 
 2373800   -390849.17    307.01888    36.027703    56476.263    84.346753    1.3792021 
 2373900   -390823.23      303.413    36.044965    56557.481    541.05523    1.3772216 
 2374000   -390862.77    298.93446    36.102869    56830.485   -2160.1853    1.3706056 
 2374100   -390965.26    291.98208    36.098904    56811.763    644.86577    1.3710573 
 2374200   -390991.12    296.44072    36.031113      56492.3   -371.80171    1.3788106 
 2374300   -390943.99    300.99677    36.007444    56381.044    1568.5939    1.3815314 
 2374400    -390839.7    299.83576    36.080419    56724.533   -1155.3419    1.3731657 
 2374500   -390835.19    303.26525    36.103498    56833.456   -1220.4057     1.370534 
 2374600   -390868.71     298.2572    36.054805    56603.812     228.3917    1.3760943 
 2374700   -390885.81    303.87751    36.011408    56399.667   -429.75057    1.3810752 
 2374800   -390954.77    301.06762    35.978498    56245.178    582.40852    1.3848686 
 2374900   -391033.37    294.00057    36.016434    56423.282   -18.315129    1.3804972 
 2375000   -390970.01    295.31147    36.054044    56600.228   -795.04986    1.3761814 
 2375100   -390904.41    298.70093    36.072599    56687.658   -171.23787    1.3740589 
 2375200   -390867.96    299.06478    36.036112    56515.817     930.4569    1.3782369 
 2375300   -390830.36    300.51646    36.018426    56432.644   -455.66529    1.3802682 
 2375400   -390816.15    305.27795     36.01318    56407.993   -314.79821    1.3808714 
 2375500   -390922.91    304.14428    35.991236    56304.939    616.50963    1.3833988 
 2375600   -390968.02    297.07945    35.984321    56272.493   -140.32357    1.3841964 
 2375700   -390924.08    300.99508    35.984742    56274.468    459.10244    1.3841478 
 2375800   -390871.33    304.84077     35.98542    56277.651   -270.23832    1.3840695 
 2375900   -390863.09    300.54572    35.943275    56080.149    866.37872    1.3889439 
 2376000   -390740.17    304.74512    35.934097    56037.202    240.78859    1.3900084 
 2376100   -390700.66    308.38402    35.962631    56170.798    184.64625    1.3867025 
 2376200   -390795.31    308.69774    35.977351    56239.801   -1542.3363     1.385001 
 2376300   -390854.91     295.6588    35.962091    56168.269    670.59673    1.3867649 
 2376400   -390874.61    301.12215    35.986461    56282.534    1416.0715    1.3839495 
 2376500   -390851.24    300.63244    36.019836    56439.276   -540.47065     1.380106 
 2376600   -390746.94    306.74165    35.988088    56290.169    545.29475    1.3837617 
 2376700   -390746.38    309.24379    35.935964    56045.934   -514.92381    1.3897919 
 2376800   -390835.31    304.35205    35.939102    56060.617     808.4242    1.3894279 
 2376900   -390880.72    298.52066    35.961167    56163.939   -179.84756    1.3868718 
 2377000   -390889.71    297.30465    35.973262    56220.629   -118.85777    1.3854734 
 2377100   -390855.68    299.76898    35.953549    56128.253   -15.214514    1.3877536 
 2377200   -390795.88    306.89554    35.941801    56073.252   -285.35928    1.3891148 
 2377300   -390834.38    297.55607     35.93576    56044.981    660.70708    1.3898155 
 2377400   -390931.44    298.00526    35.914598    55946.026    301.09641    1.3922738 
 2377500   -390944.59    298.32434    35.918544    55964.469    -743.0038    1.3918149 
 2377600   -390940.38    296.21798    35.942846    56078.142   -18.410848    1.3889936 
 2377700   -390855.82    307.50027    35.940998    56069.492    620.06763    1.3892079 
 2377800   -390802.25    308.99728    35.949336    56108.522   -132.11895    1.3882416 
 2377900   -390856.46    299.89278    35.912898    55938.081    1382.5889    1.3924715 
 2378000   -390954.49    295.01614     35.96052    56160.906   -83.280865    1.3869467 
 2378100   -390958.13    291.60297    36.015062    56416.834    -515.1398     1.380655 
 2378200   -390923.84    299.30402     35.99338    56315.006    862.92323    1.3831515 
 2378300   -390881.35    300.78685    35.957211    56145.406     424.6641    1.3873296 
 2378400   -390868.85    299.51823     35.96674    56190.053    579.83457    1.3862273 
 2378500   -390928.82    297.71046     35.96943    56202.662   -180.67426    1.3859162 
 2378600   -391005.81      296.403    35.991165    56304.606   -1327.7359     1.383407 
 2378700   -390974.17    291.58369    35.936382    56047.892    1071.0029    1.3897433 
 2378800   -390875.88    300.10058    35.898096    55868.943   -401.82882    1.3941947 
 2378900   -390895.54    304.38907    35.944155     56084.27    769.65762    1.3888419 
 2379000   -390927.44    296.78314     